# p  POINT_DATA 10201
# x  y  z  p
0.01 0.01 0.05 3.58954e-05
0 0.01 0.05 -0.000196462
0 0 0.05 2.43893e-05
0.01 0 0.05 0.000258712
0.02 0.01 0.05 -0.000786329
0.02 0 0.05 -0.000611284
0.03 0.01 0.05 -0.00448867
0.03 0 0.05 -0.00449742
0.04 0.01 0.05 -0.0111696
0.04 0 0.05 -0.0115386
0.05 0.01 0.05 -0.0203954
0.05 0 0.05 -0.0212901
0.06 0.01 0.05 -0.0317079
0.06 0 0.05 -0.0332524
0.07 0.01 0.05 -0.0446454
0.07 0 0.05 -0.0469206
0.08 0.01 0.05 -0.0587624
0.08 0 0.05 -0.0618138
0.09 0.01 0.05 -0.0736465
0.09 0 0.05 -0.0774919
0.1 0.01 0.05 -0.0889245
0.1 0 0.05 -0.0935607
0.11 0.01 0.05 -0.104262
0.11 0 0.05 -0.109671
0.12 0.01 0.05 -0.119363
0.12 0 0.05 -0.125513
0.13 0.01 0.05 -0.133965
0.13 0 0.05 -0.140817
0.14 0.01 0.05 -0.147836
0.14 0 0.05 -0.155346
0.15 0.01 0.05 -0.160776
0.15 0 0.05 -0.168894
0.16 0.01 0.05 -0.172607
0.16 0 0.05 -0.18128
0.17 0.01 0.05 -0.183179
0.17 0 0.05 -0.192351
0.18 0.01 0.05 -0.192361
0.18 0 0.05 -0.201975
0.19 0.01 0.05 -0.200042
0.19 0 0.05 -0.210041
0.2 0.01 0.05 -0.20613
0.2 0 0.05 -0.216456
0.21 0.01 0.05 -0.21055
0.21 0 0.05 -0.221145
0.22 0.01 0.05 -0.213242
0.22 0 0.05 -0.224049
0.23 0.01 0.05 -0.21416
0.23 0 0.05 -0.225123
0.24 0.01 0.05 -0.213272
0.24 0 0.05 -0.224335
0.25 0.01 0.05 -0.210558
0.25 0 0.05 -0.221666
0.26 0.01 0.05 -0.20601
0.26 0 0.05 -0.217111
0.27 0.01 0.05 -0.199629
0.27 0 0.05 -0.210671
0.28 0.01 0.05 -0.191428
0.28 0 0.05 -0.202361
0.29 0.01 0.05 -0.181427
0.29 0 0.05 -0.192203
0.3 0.01 0.05 -0.169657
0.3 0 0.05 -0.18023
0.31 0.01 0.05 -0.156155
0.31 0 0.05 -0.16648
0.32 0.01 0.05 -0.140965
0.32 0 0.05 -0.151
0.33 0.01 0.05 -0.12414
0.33 0 0.05 -0.133845
0.34 0.01 0.05 -0.105739
0.34 0 0.05 -0.115074
0.35 0.01 0.05 -0.085824
0.35 0 0.05 -0.0947542
0.36 0.01 0.05 -0.0644661
0.36 0 0.05 -0.072957
0.37 0.01 0.05 -0.0417393
0.37 0 0.05 -0.049759
0.38 0.01 0.05 -0.0177228
0.38 0 0.05 -0.0252415
0.39 0.01 0.05 0.00750026
0.39 0 0.05 0.000510027
0.4 0.01 0.05 0.0338426
0.4 0 0.05 0.0274061
0.41 0.01 0.05 0.0612138
0.41 0 0.05 0.0553541
0.42 0.01 0.05 0.08952
0.42 0 0.05 0.0842579
0.43 0.01 0.05 0.118665
0.43 0 0.05 0.114019
0.44 0.01 0.05 0.148549
0.44 0 0.05 0.144536
0.45 0.01 0.05 0.179072
0.45 0 0.05 0.175705
0.46 0.01 0.05 0.210131
0.46 0 0.05 0.207422
0.47 0.01 0.05 0.241621
0.47 0 0.05 0.239579
0.48 0.01 0.05 0.273437
0.48 0 0.05 0.272069
0.49 0.01 0.05 0.305472
0.49 0 0.05 0.304783
0.5 0.01 0.05 0.337618
0.5 0 0.05 0.337611
0.51 0.01 0.05 0.369769
0.51 0 0.05 0.370444
0.52 0.01 0.05 0.401816
0.52 0 0.05 0.40317
0.53 0.01 0.05 0.433652
0.53 0 0.05 0.435681
0.54 0.01 0.05 0.465169
0.54 0 0.05 0.467867
0.55 0.01 0.05 0.496263
0.55 0 0.05 0.49962
0.56 0.01 0.05 0.526827
0.56 0 0.05 0.530832
0.57 0.01 0.05 0.556758
0.57 0 0.05 0.561397
0.58 0.01 0.05 0.585953
0.58 0 0.05 0.591211
0.59 0.01 0.05 0.614314
0.59 0 0.05 0.620171
0.6 0.01 0.05 0.641742
0.6 0 0.05 0.648179
0.61 0.01 0.05 0.668143
0.61 0 0.05 0.675136
0.62 0.01 0.05 0.693425
0.62 0 0.05 0.700948
0.63 0.01 0.05 0.717499
0.63 0 0.05 0.725526
0.64 0.01 0.05 0.740281
0.64 0 0.05 0.748782
0.65 0.01 0.05 0.761691
0.65 0 0.05 0.770633
0.66 0.01 0.05 0.781653
0.66 0 0.05 0.791002
0.67 0.01 0.05 0.800096
0.67 0 0.05 0.809817
0.68 0.01 0.05 0.816956
0.68 0 0.05 0.827009
0.69 0.01 0.05 0.832174
0.69 0 0.05 0.842518
0.7 0.01 0.05 0.845696
0.7 0 0.05 0.856289
0.71 0.01 0.05 0.857478
0.71 0 0.05 0.868274
0.72 0.01 0.05 0.86748
0.72 0 0.05 0.878434
0.73 0.01 0.05 0.875674
0.73 0 0.05 0.886736
0.74 0.01 0.05 0.882037
0.74 0 0.05 0.893158
0.75 0.01 0.05 0.886559
0.75 0 0.05 0.897686
0.76 0.01 0.05 0.889237
0.76 0 0.05 0.900318
0.77 0.01 0.05 0.890081
0.77 0 0.05 0.90106
0.78 0.01 0.05 0.889111
0.78 0 0.05 0.899932
0.79 0.01 0.05 0.886361
0.79 0 0.05 0.896967
0.8 0.01 0.05 0.881876
0.8 0 0.05 0.892211
0.81 0.01 0.05 0.875719
0.81 0 0.05 0.885724
0.82 0.01 0.05 0.867966
0.82 0 0.05 0.877583
0.83 0.01 0.05 0.85871
0.83 0 0.05 0.867882
0.84 0.01 0.05 0.848065
0.84 0 0.05 0.856734
0.85 0.01 0.05 0.83616
0.85 0 0.05 0.844272
0.86 0.01 0.05 0.823152
0.86 0 0.05 0.830653
0.87 0.01 0.05 0.809216
0.87 0 0.05 0.816057
0.88 0.01 0.05 0.794557
0.88 0 0.05 0.800692
0.89 0.01 0.05 0.779406
0.89 0 0.05 0.784798
0.9 0.01 0.05 0.764028
0.9 0 0.05 0.768646
0.91 0.01 0.05 0.748719
0.91 0 0.05 0.752546
0.92 0.01 0.05 0.733815
0.92 0 0.05 0.736847
0.93 0.01 0.05 0.719689
0.93 0 0.05 0.721946
0.94 0.01 0.05 0.706753
0.94 0 0.05 0.70828
0.95 0.01 0.05 0.695451
0.95 0 0.05 0.69633
0.96 0.01 0.05 0.686243
0.96 0 0.05 0.686599
0.97 0.01 0.05 0.679584
0.97 0 0.05 0.679582
0.98 0.01 0.05 0.675904
0.98 0 0.05 0.67572
0.99 0.01 0.05 0.675096
0.99 0 0.05 0.674862
1 0 0.05 0.675097
1 0.01 0.05 0.675332
0.01 0.02 0.05 0.00086872
0 0.02 0.05 0.000685828
0.02 0.02 0.05 4.79255e-05
0.03 0.02 0.05 -0.00338922
0.04 0.02 0.05 -0.00946395
0.05 0.02 0.05 -0.0177612
0.06 0.02 0.05 -0.0278975
0.07 0.02 0.05 -0.0394897
0.08 0.02 0.05 -0.0521593
0.09 0.02 0.05 -0.0655479
0.1 0.02 0.05 -0.0793242
0.11 0.02 0.05 -0.0931863
0.12 0.02 0.05 -0.106862
0.13 0.02 0.05 -0.120107
0.14 0.02 0.05 -0.132704
0.15 0.02 0.05 -0.144462
0.16 0.02 0.05 -0.155213
0.17 0.02 0.05 -0.164809
0.18 0.02 0.05 -0.173124
0.19 0.02 0.05 -0.18005
0.2 0.02 0.05 -0.185496
0.21 0.02 0.05 -0.189386
0.22 0.02 0.05 -0.19166
0.23 0.02 0.05 -0.192272
0.24 0.02 0.05 -0.191188
0.25 0.02 0.05 -0.188385
0.26 0.02 0.05 -0.183852
0.27 0.02 0.05 -0.177589
0.28 0.02 0.05 -0.169604
0.29 0.02 0.05 -0.159916
0.3 0.02 0.05 -0.14855
0.31 0.02 0.05 -0.135541
0.32 0.02 0.05 -0.12093
0.33 0.02 0.05 -0.104764
0.34 0.02 0.05 -0.0870974
0.35 0.02 0.05 -0.0679907
0.36 0.02 0.05 -0.0475089
0.37 0.02 0.05 -0.0257221
0.38 0.02 0.05 -0.00270524
0.39 0.02 0.05 0.021463
0.4 0.02 0.05 0.0466998
0.41 0.02 0.05 0.0729193
0.42 0.02 0.05 0.100032
0.43 0.02 0.05 0.127946
0.44 0.02 0.05 0.156568
0.45 0.02 0.05 0.1858
0.46 0.02 0.05 0.215544
0.47 0.02 0.05 0.245701
0.48 0.02 0.05 0.276169
0.49 0.02 0.05 0.306847
0.5 0.02 0.05 0.337631
0.51 0.02 0.05 0.36842
0.52 0.02 0.05 0.399109
0.53 0.02 0.05 0.429595
0.54 0.02 0.05 0.459778
0.55 0.02 0.05 0.489554
0.56 0.02 0.05 0.518823
0.57 0.02 0.05 0.547487
0.58 0.02 0.05 0.575449
0.59 0.02 0.05 0.602612
0.6 0.02 0.05 0.628884
0.61 0.02 0.05 0.654174
0.62 0.02 0.05 0.678397
0.63 0.02 0.05 0.701467
0.64 0.02 0.05 0.723304
0.65 0.02 0.05 0.743834
0.66 0.02 0.05 0.762984
0.67 0.02 0.05 0.780689
0.68 0.02 0.05 0.796887
0.69 0.02 0.05 0.811524
0.7 0.02 0.05 0.824551
0.71 0.02 0.05 0.835927
0.72 0.02 0.05 0.845617
0.73 0.02 0.05 0.853594
0.74 0.02 0.05 0.859841
0.75 0.02 0.05 0.864349
0.76 0.02 0.05 0.86712
0.77 0.02 0.05 0.868163
0.78 0.02 0.05 0.867504
0.79 0.02 0.05 0.865175
0.8 0.02 0.05 0.861225
0.81 0.02 0.05 0.855716
0.82 0.02 0.05 0.848724
0.83 0.02 0.05 0.840341
0.84 0.02 0.05 0.830677
0.85 0.02 0.05 0.81986
0.86 0.02 0.05 0.808038
0.87 0.02 0.05 0.795381
0.88 0.02 0.05 0.782083
0.89 0.02 0.05 0.768362
0.9 0.02 0.05 0.754461
0.91 0.02 0.05 0.740656
0.92 0.02 0.05 0.727248
0.93 0.02 0.05 0.714568
0.94 0.02 0.05 0.702975
0.95 0.02 0.05 0.692846
0.96 0.02 0.05 0.684563
0.97 0.02 0.05 0.678506
0.98 0.02 0.05 0.675089
0.99 0.02 0.05 0.674286
1 0.02 0.05 0.674476
0.01 0.03 0.05 0.00457187
0 0.03 0.05 0.00456665
0.02 0.03 0.05 0.0034957
0.03 0.03 0.05 5.99436e-05
0.04 0.03 0.05 -0.00570067
0.05 0.03 0.05 -0.0133961
0.06 0.03 0.05 -0.0226971
0.07 0.03 0.05 -0.0332801
0.08 0.03 0.05 -0.0448221
0.09 0.03 0.05 -0.057012
0.1 0.03 0.05 -0.0695578
0.11 0.03 0.05 -0.082189
0.12 0.03 0.05 -0.0946582
0.13 0.03 0.05 -0.106741
0.14 0.03 0.05 -0.118236
0.15 0.03 0.05 -0.128964
0.16 0.03 0.05 -0.138764
0.17 0.03 0.05 -0.147498
0.18 0.03 0.05 -0.155043
0.19 0.03 0.05 -0.161295
0.2 0.03 0.05 -0.166166
0.21 0.03 0.05 -0.16958
0.22 0.03 0.05 -0.171479
0.23 0.03 0.05 -0.171815
0.24 0.03 0.05 -0.170554
0.25 0.03 0.05 -0.167672
0.26 0.03 0.05 -0.163156
0.27 0.03 0.05 -0.157004
0.28 0.03 0.05 -0.149221
0.29 0.03 0.05 -0.139824
0.3 0.03 0.05 -0.128834
0.31 0.03 0.05 -0.116284
0.32 0.03 0.05 -0.102209
0.33 0.03 0.05 -0.0866564
0.34 0.03 0.05 -0.0696747
0.35 0.03 0.05 -0.0513206
0.36 0.03 0.05 -0.0316554
0.37 0.03 0.05 -0.0107455
0.38 0.03 0.05 0.0113385
0.39 0.03 0.05 0.0345219
0.4 0.03 0.05 0.0587261
0.41 0.03 0.05 0.0838693
0.42 0.03 0.05 0.109867
0.43 0.03 0.05 0.13663
0.44 0.03 0.05 0.16407
0.45 0.03 0.05 0.192094
0.46 0.03 0.05 0.220608
0.47 0.03 0.05 0.249517
0.48 0.03 0.05 0.278724
0.49 0.03 0.05 0.308131
0.5 0.03 0.05 0.337641
0.51 0.03 0.05 0.367154
0.52 0.03 0.05 0.396571
0.53 0.03 0.05 0.425795
0.54 0.03 0.05 0.454728
0.55 0.03 0.05 0.483272
0.56 0.03 0.05 0.511331
0.57 0.03 0.05 0.538811
0.58 0.03 0.05 0.565618
0.59 0.03 0.05 0.591662
0.6 0.03 0.05 0.616854
0.61 0.03 0.05 0.641109
0.62 0.03 0.05 0.664342
0.63 0.03 0.05 0.686476
0.64 0.03 0.05 0.707433
0.65 0.03 0.05 0.727143
0.66 0.03 0.05 0.745538
0.67 0.03 0.05 0.762555
0.68 0.03 0.05 0.778138
0.69 0.03 0.05 0.792236
0.7 0.03 0.05 0.804804
0.71 0.03 0.05 0.815802
0.72 0.03 0.05 0.825201
0.73 0.03 0.05 0.832977
0.74 0.03 0.05 0.839114
0.75 0.03 0.05 0.843607
0.76 0.03 0.05 0.846458
0.77 0.03 0.05 0.847682
0.78 0.03 0.05 0.847301
0.79 0.03 0.05 0.845352
0.8 0.03 0.05 0.841882
0.81 0.03 0.05 0.836953
0.82 0.03 0.05 0.830639
0.83 0.03 0.05 0.82303
0.84 0.03 0.05 0.814233
0.85 0.03 0.05 0.804371
0.86 0.03 0.05 0.793584
0.87 0.03 0.05 0.782034
0.88 0.03 0.05 0.769901
0.89 0.03 0.05 0.757388
0.9 0.03 0.05 0.744721
0.91 0.03 0.05 0.732147
0.92 0.03 0.05 0.719937
0.93 0.03 0.05 0.708385
0.94 0.03 0.05 0.6978
0.95 0.03 0.05 0.688504
0.96 0.03 0.05 0.680821
0.97 0.03 0.05 0.675078
0.98 0.03 0.05 0.671663
0.99 0.03 0.05 0.670608
1 0.03 0.05 0.670623
0.01 0.04 0.05 0.0112582
0 0.04 0.05 0.0116044
0.02 0.04 0.05 0.00958658
0.03 0.04 0.05 0.00583084
0.04 0.04 0.05 5.8359e-05
0.05 0.04 0.05 -0.00738978
0.06 0.04 0.05 -0.0162266
0.07 0.04 0.05 -0.0261727
0.08 0.04 0.05 -0.0369488
0.09 0.04 0.05 -0.048284
0.1 0.04 0.05 -0.0599208
0.11 0.04 0.05 -0.0716178
0.12 0.04 0.05 -0.0831519
0.13 0.04 0.05 -0.0943184
0.14 0.04 0.05 -0.104932
0.15 0.04 0.05 -0.114825
0.16 0.04 0.05 -0.123849
0.17 0.04 0.05 -0.131873
0.18 0.04 0.05 -0.138779
0.19 0.04 0.05 -0.144469
0.2 0.04 0.05 -0.148857
0.21 0.04 0.05 -0.151872
0.22 0.04 0.05 -0.153454
0.23 0.04 0.05 -0.153559
0.24 0.04 0.05 -0.152151
0.25 0.04 0.05 -0.149206
0.26 0.04 0.05 -0.14471
0.27 0.04 0.05 -0.138659
0.28 0.04 0.05 -0.131057
0.29 0.04 0.05 -0.121919
0.3 0.04 0.05 -0.111263
0.31 0.04 0.05 -0.0991196
0.32 0.04 0.05 -0.0855225
0.33 0.04 0.05 -0.0705135
0.34 0.04 0.05 -0.0541399
0.35 0.04 0.05 -0.0364546
0.36 0.04 0.05 -0.0175156
0.37 0.04 0.05 0.00261422
0.38 0.04 0.05 0.0238678
0.39 0.04 0.05 0.0461741
0.4 0.04 0.05 0.0694581
0.41 0.04 0.05 0.0936418
0.42 0.04 0.05 0.118644
0.43 0.04 0.05 0.144381
0.44 0.04 0.05 0.170766
0.45 0.04 0.05 0.197712
0.46 0.04 0.05 0.225128
0.47 0.04 0.05 0.252922
0.48 0.04 0.05 0.281002
0.49 0.04 0.05 0.309275
0.5 0.04 0.05 0.337645
0.51 0.04 0.05 0.366019
0.52 0.04 0.05 0.394301
0.53 0.04 0.05 0.422398
0.54 0.04 0.05 0.450215
0.55 0.04 0.05 0.477659
0.56 0.04 0.05 0.504638
0.57 0.04 0.05 0.531061
0.58 0.04 0.05 0.556839
0.59 0.04 0.05 0.581886
0.6 0.04 0.05 0.606116
0.61 0.04 0.05 0.629448
0.62 0.04 0.05 0.651802
0.63 0.04 0.05 0.673102
0.64 0.04 0.05 0.693277
0.65 0.04 0.05 0.712259
0.66 0.04 0.05 0.729983
0.67 0.04 0.05 0.74639
0.68 0.04 0.05 0.761428
0.69 0.04 0.05 0.775048
0.7 0.04 0.05 0.787208
0.71 0.04 0.05 0.797872
0.72 0.04 0.05 0.807012
0.73 0.04 0.05 0.814607
0.74 0.04 0.05 0.820644
0.75 0.04 0.05 0.825118
0.76 0.04 0.05 0.828035
0.77 0.04 0.05 0.829407
0.78 0.04 0.05 0.82926
0.79 0.04 0.05 0.82763
0.8 0.04 0.05 0.824563
0.81 0.04 0.05 0.820119
0.82 0.04 0.05 0.814371
0.83 0.04 0.05 0.807404
0.84 0.04 0.05 0.799321
0.85 0.04 0.05 0.790238
0.86 0.04 0.05 0.780288
0.87 0.04 0.05 0.769622
0.88 0.04 0.05 0.758408
0.89 0.04 0.05 0.746832
0.9 0.04 0.05 0.7351
0.91 0.04 0.05 0.723436
0.92 0.04 0.05 0.712081
0.93 0.04 0.05 0.701294
0.94 0.04 0.05 0.691346
0.95 0.04 0.05 0.682514
0.96 0.04 0.05 0.675078
0.97 0.04 0.05 0.669324
0.98 0.04 0.05 0.665592
0.99 0.04 0.05 0.663947
1 0.04 0.05 0.663615
0.01 0.05 0.05 0.0205142
0 0.05 0.05 0.021376
0.02 0.05 0.05 0.0179238
0.03 0.05 0.05 0.0135514
0.04 0.05 0.05 0.00749144
0.05 0.05 0.05 1.1925e-05
0.06 0.05 0.05 -0.00864203
0.07 0.05 0.05 -0.0182295
0.08 0.05 0.05 -0.0285098
0.09 0.05 0.05 -0.0392475
0.1 0.05 0.05 -0.0502167
0.11 0.05 0.05 -0.0612035
0.12 0.05 0.05 -0.0720077
0.13 0.05 0.05 -0.0824445
0.14 0.05 0.05 -0.0923444
0.15 0.05 0.05 -0.101554
0.16 0.05 0.05 -0.109935
0.17 0.05 0.05 -0.117364
0.18 0.05 0.05 -0.123732
0.19 0.05 0.05 -0.128946
0.2 0.05 0.05 -0.132924
0.21 0.05 0.05 -0.135598
0.22 0.05 0.05 -0.136912
0.23 0.05 0.05 -0.13682
0.24 0.05 0.05 -0.135289
0.25 0.05 0.05 -0.132295
0.26 0.05 0.05 -0.127824
0.27 0.05 0.05 -0.12187
0.28 0.05 0.05 -0.114437
0.29 0.05 0.05 -0.105536
0.3 0.05 0.05 -0.0951869
0.31 0.05 0.05 -0.0834152
0.32 0.05 0.05 -0.0702538
0.33 0.05 0.05 -0.0557414
0.34 0.05 0.05 -0.0399229
0.35 0.05 0.05 -0.0228482
0.36 0.05 0.05 -0.0045725
0.37 0.05 0.05 0.0148446
0.38 0.05 0.05 0.0353392
0.39 0.05 0.05 0.0568434
0.4 0.05 0.05 0.0792856
0.41 0.05 0.05 0.102591
0.42 0.05 0.05 0.126683
0.43 0.05 0.05 0.151479
0.44 0.05 0.05 0.176899
0.45 0.05 0.05 0.202856
0.46 0.05 0.05 0.229265
0.47 0.05 0.05 0.256038
0.48 0.05 0.05 0.283086
0.49 0.05 0.05 0.310318
0.5 0.05 0.05 0.337645
0.51 0.05 0.05 0.364975
0.52 0.05 0.05 0.392217
0.53 0.05 0.05 0.41928
0.54 0.05 0.05 0.446075
0.55 0.05 0.05 0.472511
0.56 0.05 0.05 0.498501
0.57 0.05 0.05 0.523957
0.58 0.05 0.05 0.548794
0.59 0.05 0.05 0.572928
0.6 0.05 0.05 0.596279
0.61 0.05 0.05 0.618767
0.62 0.05 0.05 0.640317
0.63 0.05 0.05 0.660857
0.64 0.05 0.05 0.680318
0.65 0.05 0.05 0.698635
0.66 0.05 0.05 0.715747
0.67 0.05 0.05 0.731599
0.68 0.05 0.05 0.746139
0.69 0.05 0.05 0.759323
0.7 0.05 0.05 0.77111
0.71 0.05 0.05 0.781468
0.72 0.05 0.05 0.79037
0.73 0.05 0.05 0.797798
0.74 0.05 0.05 0.803739
0.75 0.05 0.05 0.80819
0.76 0.05 0.05 0.811156
0.77 0.05 0.05 0.812653
0.78 0.05 0.05 0.812705
0.79 0.05 0.05 0.811346
0.8 0.05 0.05 0.808622
0.81 0.05 0.05 0.80459
0.82 0.05 0.05 0.799319
0.83 0.05 0.05 0.792893
0.84 0.05 0.05 0.785406
0.85 0.05 0.05 0.776969
0.86 0.05 0.05 0.767705
0.87 0.05 0.05 0.757754
0.88 0.05 0.05 0.74727
0.89 0.05 0.05 0.736425
0.9 0.05 0.05 0.725404
0.91 0.05 0.05 0.714408
0.92 0.05 0.05 0.703651
0.93 0.05 0.05 0.69336
0.94 0.05 0.05 0.68377
0.95 0.05 0.05 0.675122
0.96 0.05 0.05 0.667655
0.97 0.05 0.05 0.661616
0.98 0.05 0.05 0.657271
0.99 0.05 0.05 0.654714
1 0.05 0.05 0.653869
0.01 0.06 0.05 0.031913
0 0.06 0.05 0.0334152
0.02 0.06 0.05 0.0281511
0.03 0.06 0.05 0.022917
0.04 0.06 0.05 0.0163349
0.05 0.06 0.05 0.00858738
0.06 0.06 0.05 -0.000122125
0.07 0.06 0.05 -0.00958765
0.08 0.06 0.05 -0.0196033
0.09 0.06 0.05 -0.0299658
0.1 0.06 0.05 -0.0404782
0.11 0.06 0.05 -0.0509519
0.12 0.06 0.05 -0.0612089
0.13 0.06 0.05 -0.0710833
0.14 0.06 0.05 -0.0804218
0.15 0.06 0.05 -0.0890841
0.16 0.06 0.05 -0.0969433
0.17 0.06 0.05 -0.103886
0.18 0.06 0.05 -0.10981
0.19 0.06 0.05 -0.114629
0.2 0.06 0.05 -0.118265
0.21 0.06 0.05 -0.120654
0.22 0.06 0.05 -0.121744
0.23 0.06 0.05 -0.12149
0.24 0.06 0.05 -0.11986
0.25 0.06 0.05 -0.116831
0.26 0.06 0.05 -0.11239
0.27 0.06 0.05 -0.10653
0.28 0.06 0.05 -0.099254
0.29 0.06 0.05 -0.0905732
0.3 0.06 0.05 -0.0805049
0.31 0.06 0.05 -0.0690735
0.32 0.06 0.05 -0.0563097
0.33 0.06 0.05 -0.0422504
0.34 0.06 0.05 -0.026938
0.35 0.06 0.05 -0.0104202
0.36 0.06 0.05 0.00725077
0.37 0.06 0.05 0.0260178
0.38 0.06 0.05 0.0458198
0.39 0.06 0.05 0.0665919
0.4 0.06 0.05 0.0882655
0.41 0.06 0.05 0.110769
0.42 0.06 0.05 0.134028
0.43 0.06 0.05 0.157966
0.44 0.06 0.05 0.182502
0.45 0.06 0.05 0.207556
0.46 0.06 0.05 0.233045
0.47 0.06 0.05 0.258884
0.48 0.06 0.05 0.284987
0.49 0.06 0.05 0.311268
0.5 0.06 0.05 0.33764
0.51 0.06 0.05 0.364014
0.52 0.06 0.05 0.390305
0.53 0.06 0.05 0.416423
0.54 0.06 0.05 0.442283
0.55 0.06 0.05 0.467799
0.56 0.06 0.05 0.492885
0.57 0.06 0.05 0.517457
0.58 0.06 0.05 0.541434
0.59 0.06 0.05 0.564735
0.6 0.06 0.05 0.587283
0.61 0.06 0.05 0.609002
0.62 0.06 0.05 0.62982
0.63 0.06 0.05 0.649666
0.64 0.06 0.05 0.668477
0.65 0.06 0.05 0.686188
0.66 0.06 0.05 0.702743
0.67 0.06 0.05 0.718088
0.68 0.06 0.05 0.732175
0.69 0.06 0.05 0.744961
0.7 0.06 0.05 0.756409
0.71 0.06 0.05 0.766486
0.72 0.06 0.05 0.77517
0.73 0.06 0.05 0.78244
0.74 0.06 0.05 0.788288
0.75 0.06 0.05 0.79271
0.76 0.06 0.05 0.795713
0.77 0.06 0.05 0.79731
0.78 0.06 0.05 0.797525
0.79 0.06 0.05 0.796392
0.8 0.06 0.05 0.793954
0.81 0.06 0.05 0.790265
0.82 0.06 0.05 0.785392
0.83 0.06 0.05 0.779411
0.84 0.06 0.05 0.772412
0.85 0.06 0.05 0.764497
0.86 0.06 0.05 0.755781
0.87 0.06 0.05 0.746392
0.88 0.06 0.05 0.736472
0.89 0.06 0.05 0.726174
0.9 0.06 0.05 0.715666
0.91 0.06 0.05 0.705127
0.92 0.06 0.05 0.694745
0.93 0.06 0.05 0.684719
0.94 0.06 0.05 0.675251
0.95 0.06 0.05 0.666548
0.96 0.06 0.05 0.658815
0.97 0.06 0.05 0.652256
0.98 0.06 0.05 0.647054
0.99 0.06 0.05 0.643331
1 0.06 0.05 0.641849
0.01 0.07 0.05 0.0450334
0 0.07 0.05 0.0472612
0.02 0.07 0.05 0.03992
0.03 0.07 0.05 0.0336344
0.04 0.07 0.05 0.026337
0.05 0.07 0.05 0.0181221
0.06 0.07 0.05 0.00915343
0.07 0.07 0.05 -0.000394471
0.08 0.07 0.05 -0.010347
0.09 0.07 0.05 -0.0205303
0.1 0.07 0.05 -0.0307733
0.11 0.07 0.05 -0.0409112
0.12 0.07 0.05 -0.0507868
0.13 0.07 0.05 -0.0602521
0.14 0.07 0.05 -0.0691693
0.15 0.07 0.05 -0.0774115
0.16 0.07 0.05 -0.0848633
0.17 0.07 0.05 -0.0914202
0.18 0.07 0.05 -0.0969894
0.19 0.07 0.05 -0.101489
0.2 0.07 0.05 -0.104848
0.21 0.07 0.05 -0.107007
0.22 0.07 0.05 -0.107915
0.23 0.07 0.05 -0.107532
0.24 0.07 0.05 -0.105827
0.25 0.07 0.05 -0.102778
0.26 0.07 0.05 -0.0983719
0.27 0.07 0.05 -0.0926036
0.28 0.07 0.05 -0.0854753
0.29 0.07 0.05 -0.076997
0.3 0.07 0.05 -0.0671853
0.31 0.07 0.05 -0.0560635
0.32 0.07 0.05 -0.0436608
0.33 0.07 0.05 -0.0300124
0.34 0.07 0.05 -0.0151588
0.35 0.07 0.05 0.000854638
0.36 0.07 0.05 0.0179776
0.37 0.07 0.05 0.0361554
0.38 0.07 0.05 0.0553296
0.39 0.07 0.05 0.0754379
0.4 0.07 0.05 0.0964144
0.41 0.07 0.05 0.11819
0.42 0.07 0.05 0.140694
0.43 0.07 0.05 0.163852
0.44 0.07 0.05 0.187587
0.45 0.07 0.05 0.21182
0.46 0.07 0.05 0.236473
0.47 0.07 0.05 0.261463
0.48 0.07 0.05 0.286708
0.49 0.07 0.05 0.312125
0.5 0.07 0.05 0.337629
0.51 0.07 0.05 0.363136
0.52 0.07 0.05 0.388562
0.53 0.07 0.05 0.413822
0.54 0.07 0.05 0.438834
0.55 0.07 0.05 0.463513
0.56 0.07 0.05 0.487778
0.57 0.07 0.05 0.511549
0.58 0.07 0.05 0.534746
0.59 0.07 0.05 0.557292
0.6 0.07 0.05 0.579112
0.61 0.07 0.05 0.600134
0.62 0.07 0.05 0.620288
0.63 0.07 0.05 0.639507
0.64 0.07 0.05 0.657728
0.65 0.07 0.05 0.674892
0.66 0.07 0.05 0.690942
0.67 0.07 0.05 0.705829
0.68 0.07 0.05 0.719506
0.69 0.07 0.05 0.731932
0.7 0.07 0.05 0.74307
0.71 0.07 0.05 0.752892
0.72 0.07 0.05 0.761374
0.73 0.07 0.05 0.768498
0.74 0.07 0.05 0.774255
0.75 0.07 0.05 0.778643
0.76 0.07 0.05 0.781666
0.77 0.07 0.05 0.78334
0.78 0.07 0.05 0.783685
0.79 0.07 0.05 0.782734
0.8 0.07 0.05 0.780528
0.81 0.07 0.05 0.777117
0.82 0.07 0.05 0.772563
0.83 0.07 0.05 0.766938
0.84 0.07 0.05 0.760325
0.85 0.07 0.05 0.752818
0.86 0.07 0.05 0.744522
0.87 0.07 0.05 0.735554
0.88 0.07 0.05 0.726043
0.89 0.07 0.05 0.716127
0.9 0.07 0.05 0.705954
0.91 0.07 0.05 0.695684
0.92 0.07 0.05 0.685481
0.93 0.07 0.05 0.675518
0.94 0.07 0.05 0.665968
0.95 0.07 0.05 0.657006
0.96 0.07 0.05 0.648808
0.97 0.07 0.05 0.641536
0.98 0.07 0.05 0.635286
0.99 0.07 0.05 0.630218
1 0.07 0.05 0.628014
0.01 0.08 0.05 0.059477
0 0.08 0.05 0.0624838
0.02 0.08 0.05 0.0528921
0.03 0.08 0.05 0.045415
0.04 0.08 0.05 0.0372498
0.05 0.08 0.05 0.0284043
0.06 0.08 0.05 0.0190066
0.07 0.08 0.05 0.00920329
0.08 0.08 0.05 -0.000859136
0.09 0.08 0.05 -0.0110328
0.1 0.08 0.05 -0.0211709
0.11 0.08 0.05 -0.0311298
0.12 0.08 0.05 -0.0407716
0.13 0.08 0.05 -0.0499654
0.14 0.08 0.05 -0.0585884
0.15 0.08 0.05 -0.0665265
0.16 0.08 0.05 -0.0736753
0.17 0.08 0.05 -0.0799402
0.18 0.08 0.05 -0.0852362
0.19 0.08 0.05 -0.0894884
0.2 0.08 0.05 -0.0926315
0.21 0.08 0.05 -0.0946099
0.22 0.08 0.05 -0.0953773
0.23 0.08 0.05 -0.0948962
0.24 0.08 0.05 -0.0931382
0.25 0.08 0.05 -0.0900829
0.26 0.08 0.05 -0.085718
0.27 0.08 0.05 -0.0800391
0.28 0.08 0.05 -0.0730486
0.29 0.08 0.05 -0.0647563
0.3 0.08 0.05 -0.0551782
0.31 0.08 0.05 -0.0443368
0.32 0.08 0.05 -0.0322603
0.33 0.08 0.05 -0.0189824
0.34 0.08 0.05 -0.00454207
0.35 0.08 0.05 0.011017
0.36 0.08 0.05 0.0276464
0.37 0.08 0.05 0.0452936
0.38 0.08 0.05 0.0639024
0.39 0.08 0.05 0.0834125
0.4 0.08 0.05 0.103761
0.41 0.08 0.05 0.124881
0.42 0.08 0.05 0.146704
0.43 0.08 0.05 0.169157
0.44 0.08 0.05 0.192169
0.45 0.08 0.05 0.215662
0.46 0.08 0.05 0.23956
0.47 0.08 0.05 0.263784
0.48 0.08 0.05 0.288254
0.49 0.08 0.05 0.31289
0.5 0.08 0.05 0.337611
0.51 0.08 0.05 0.362335
0.52 0.08 0.05 0.386981
0.53 0.08 0.05 0.411467
0.54 0.08 0.05 0.435712
0.55 0.08 0.05 0.459637
0.56 0.08 0.05 0.483162
0.57 0.08 0.05 0.50621
0.58 0.08 0.05 0.528704
0.59 0.08 0.05 0.550569
0.6 0.08 0.05 0.571734
0.61 0.08 0.05 0.592129
0.62 0.08 0.05 0.611685
0.63 0.08 0.05 0.63034
0.64 0.08 0.05 0.648032
0.65 0.08 0.05 0.664703
0.66 0.08 0.05 0.680301
0.67 0.08 0.05 0.694775
0.68 0.08 0.05 0.708083
0.69 0.08 0.05 0.720183
0.7 0.08 0.05 0.731043
0.71 0.08 0.05 0.740632
0.72 0.08 0.05 0.748929
0.73 0.08 0.05 0.755916
0.74 0.08 0.05 0.761585
0.75 0.08 0.05 0.765933
0.76 0.08 0.05 0.768964
0.77 0.08 0.05 0.770691
0.78 0.08 0.05 0.771135
0.79 0.08 0.05 0.770325
0.8 0.08 0.05 0.768299
0.81 0.08 0.05 0.765105
0.82 0.08 0.05 0.760799
0.83 0.08 0.05 0.755447
0.84 0.08 0.05 0.749126
0.85 0.08 0.05 0.741921
0.86 0.08 0.05 0.733929
0.87 0.08 0.05 0.725255
0.88 0.08 0.05 0.716014
0.89 0.08 0.05 0.706331
0.9 0.08 0.05 0.696336
0.91 0.08 0.05 0.68617
0.92 0.08 0.05 0.675977
0.93 0.08 0.05 0.665903
0.94 0.08 0.05 0.656098
0.95 0.08 0.05 0.646708
0.96 0.08 0.05 0.63788
0.97 0.08 0.05 0.629743
0.98 0.08 0.05 0.622306
0.99 0.08 0.05 0.615772
1 0.08 0.05 0.612791
0.01 0.09 0.05 0.0748823
0 0.09 0.05 0.078698
0.02 0.09 0.05 0.0667522
0.03 0.09 0.05 0.0579853
0.04 0.09 0.05 0.0488352
0.05 0.09 0.05 0.0392288
0.06 0.09 0.05 0.0292627
0.07 0.09 0.05 0.0190591
0.08 0.09 0.05 0.00874009
0.09 0.09 0.05 -0.00157
0.1 0.09 0.05 -0.0117456
0.11 0.09 0.05 -0.021663
0.12 0.09 0.05 -0.0312017
0.13 0.09 0.05 -0.0402468
0.14 0.09 0.05 -0.0486894
0.15 0.09 0.05 -0.056428
0.16 0.09 0.05 -0.0633689
0.17 0.09 0.05 -0.0694268
0.18 0.09 0.05 -0.074525
0.19 0.09 0.05 -0.0785952
0.2 0.09 0.05 -0.0815782
0.21 0.09 0.05 -0.0834231
0.22 0.09 0.05 -0.0840877
0.23 0.09 0.05 -0.0835378
0.24 0.09 0.05 -0.0817474
0.25 0.09 0.05 -0.0786982
0.26 0.09 0.05 -0.0743794
0.27 0.09 0.05 -0.0687875
0.28 0.09 0.05 -0.0619255
0.29 0.09 0.05 -0.0538032
0.3 0.09 0.05 -0.0444367
0.31 0.09 0.05 -0.0338477
0.32 0.09 0.05 -0.0220637
0.33 0.09 0.05 -0.00911758
0.34 0.09 0.05 0.00495311
0.35 0.09 0.05 0.020106
0.36 0.09 0.05 0.0362943
0.37 0.09 0.05 0.0534673
0.38 0.09 0.05 0.0715705
0.39 0.09 0.05 0.0905458
0.4 0.09 0.05 0.110332
0.41 0.09 0.05 0.130865
0.42 0.09 0.05 0.152078
0.43 0.09 0.05 0.173902
0.44 0.09 0.05 0.196266
0.45 0.09 0.05 0.219096
0.46 0.09 0.05 0.242318
0.47 0.09 0.05 0.265855
0.48 0.09 0.05 0.289631
0.49 0.09 0.05 0.313568
0.5 0.09 0.05 0.337587
0.51 0.09 0.05 0.361609
0.52 0.09 0.05 0.385555
0.53 0.09 0.05 0.409347
0.54 0.09 0.05 0.432907
0.55 0.09 0.05 0.456156
0.56 0.09 0.05 0.479019
0.57 0.09 0.05 0.50142
0.58 0.09 0.05 0.523285
0.59 0.09 0.05 0.544542
0.6 0.09 0.05 0.565122
0.61 0.09 0.05 0.584956
0.62 0.09 0.05 0.603979
0.63 0.09 0.05 0.62213
0.64 0.09 0.05 0.639349
0.65 0.09 0.05 0.655581
0.66 0.09 0.05 0.670774
0.67 0.09 0.05 0.684881
0.68 0.09 0.05 0.697859
0.69 0.09 0.05 0.709668
0.7 0.09 0.05 0.720277
0.71 0.09 0.05 0.729656
0.72 0.09 0.05 0.737784
0.73 0.09 0.05 0.744645
0.74 0.09 0.05 0.750228
0.75 0.09 0.05 0.754531
0.76 0.09 0.05 0.757557
0.77 0.09 0.05 0.759317
0.78 0.09 0.05 0.75983
0.79 0.09 0.05 0.759124
0.8 0.09 0.05 0.757231
0.81 0.09 0.05 0.754197
0.82 0.09 0.05 0.750073
0.83 0.09 0.05 0.744918
0.84 0.09 0.05 0.738803
0.85 0.09 0.05 0.731805
0.86 0.09 0.05 0.724011
0.87 0.09 0.05 0.715516
0.88 0.09 0.05 0.706423
0.89 0.09 0.05 0.696841
0.9 0.09 0.05 0.686887
0.91 0.09 0.05 0.676682
0.92 0.09 0.05 0.666351
0.93 0.09 0.05 0.65602
0.94 0.09 0.05 0.645815
0.95 0.09 0.05 0.635857
0.96 0.09 0.05 0.62627
0.97 0.09 0.05 0.61715
0.98 0.09 0.05 0.608427
0.99 0.09 0.05 0.600352
1 0.09 0.05 0.596566
0.01 0.1 0.05 0.0909293
0 0.1 0.05 0.0955671
0.02 0.1 0.05 0.081214
0.03 0.1 0.05 0.0710917
0.04 0.1 0.05 0.0608695
0.05 0.1 0.05 0.0503998
0.06 0.1 0.05 0.0397523
0.07 0.1 0.05 0.0290287
0.08 0.1 0.05 0.0183294
0.09 0.1 0.05 0.00775834
0.1 0.1 0.05 -0.00257801
0.11 0.1 0.05 -0.0125735
0.12 0.1 0.05 -0.0221239
0.13 0.1 0.05 -0.0311289
0.14 0.1 0.05 -0.0394927
0.15 0.1 0.05 -0.0471255
0.16 0.1 0.05 -0.0539441
0.17 0.1 0.05 -0.0598722
0.18 0.1 0.05 -0.0648409
0.19 0.1 0.05 -0.068789
0.2 0.1 0.05 -0.071663
0.21 0.1 0.05 -0.0734171
0.22 0.1 0.05 -0.0740133
0.23 0.1 0.05 -0.073421
0.24 0.1 0.05 -0.0716169
0.25 0.1 0.05 -0.068585
0.26 0.1 0.05 -0.0643163
0.27 0.1 0.05 -0.0588085
0.28 0.1 0.05 -0.0520654
0.29 0.1 0.05 -0.0440975
0.3 0.1 0.05 -0.0349208
0.31 0.1 0.05 -0.0245569
0.32 0.1 0.05 -0.013033
0.33 0.1 0.05 -0.000380998
0.34 0.1 0.05 0.0133623
0.35 0.1 0.05 0.0281556
0.36 0.1 0.05 0.0439535
0.37 0.1 0.05 0.0607068
0.38 0.1 0.05 0.0783624
0.39 0.1 0.05 0.096864
0.4 0.1 0.05 0.116152
0.41 0.1 0.05 0.136165
0.42 0.1 0.05 0.156838
0.43 0.1 0.05 0.178103
0.44 0.1 0.05 0.199892
0.45 0.1 0.05 0.222133
0.46 0.1 0.05 0.244755
0.47 0.1 0.05 0.267683
0.48 0.1 0.05 0.290843
0.49 0.1 0.05 0.314158
0.5 0.1 0.05 0.337554
0.51 0.1 0.05 0.360953
0.52 0.1 0.05 0.384279
0.53 0.1 0.05 0.407455
0.54 0.1 0.05 0.430406
0.55 0.1 0.05 0.453056
0.56 0.1 0.05 0.475332
0.57 0.1 0.05 0.49716
0.58 0.1 0.05 0.518468
0.59 0.1 0.05 0.539186
0.6 0.1 0.05 0.559248
0.61 0.1 0.05 0.578586
0.62 0.1 0.05 0.597138
0.63 0.1 0.05 0.614843
0.64 0.1 0.05 0.631645
0.65 0.1 0.05 0.647489
0.66 0.1 0.05 0.662325
0.67 0.1 0.05 0.676107
0.68 0.1 0.05 0.688793
0.69 0.1 0.05 0.700345
0.7 0.1 0.05 0.710731
0.71 0.1 0.05 0.719923
0.72 0.1 0.05 0.727899
0.73 0.1 0.05 0.734642
0.74 0.1 0.05 0.740142
0.75 0.1 0.05 0.744396
0.76 0.1 0.05 0.747406
0.77 0.1 0.05 0.74918
0.78 0.1 0.05 0.749737
0.79 0.1 0.05 0.749098
0.8 0.1 0.05 0.747297
0.81 0.1 0.05 0.744371
0.82 0.1 0.05 0.740368
0.83 0.1 0.05 0.735342
0.84 0.1 0.05 0.729355
0.85 0.1 0.05 0.722478
0.86 0.1 0.05 0.714789
0.87 0.1 0.05 0.70637
0.88 0.1 0.05 0.697315
0.89 0.1 0.05 0.68772
0.9 0.1 0.05 0.677686
0.91 0.1 0.05 0.667319
0.92 0.1 0.05 0.656725
0.93 0.1 0.05 0.646013
0.94 0.1 0.05 0.635287
0.95 0.1 0.05 0.624648
0.96 0.1 0.05 0.614199
0.97 0.1 0.05 0.604009
0.98 0.1 0.05 0.593934
0.99 0.1 0.05 0.584279
1 0.1 0.05 0.579672
0.01 0.11 0.05 0.107337
0 0.11 0.05 0.112798
0.02 0.11 0.05 0.0960204
0.03 0.11 0.05 0.0845017
0.04 0.11 0.05 0.0731446
0.05 0.11 0.05 0.0617328
0.06 0.11 0.05 0.0503134
0.07 0.11 0.05 0.0389713
0.08 0.11 0.05 0.0277885
0.09 0.11 0.05 0.016851
0.1 0.11 0.05 0.0062484
0.11 0.11 0.05 -0.00392885
0.12 0.11 0.05 -0.0135912
0.13 0.11 0.05 -0.0226516
0.14 0.11 0.05 -0.0310265
0.15 0.11 0.05 -0.038637
0.16 0.11 0.05 -0.0454097
0.17 0.11 0.05 -0.051277
0.18 0.11 0.05 -0.0561778
0.19 0.11 0.05 -0.0600577
0.2 0.11 0.05 -0.0628689
0.21 0.11 0.05 -0.0645708
0.22 0.11 0.05 -0.0651296
0.23 0.11 0.05 -0.0645184
0.24 0.11 0.05 -0.062717
0.25 0.11 0.05 -0.0597119
0.26 0.11 0.05 -0.055496
0.27 0.11 0.05 -0.0500684
0.28 0.11 0.05 -0.0434344
0.29 0.11 0.05 -0.035605
0.3 0.11 0.05 -0.0265966
0.31 0.11 0.05 -0.016431
0.32 0.11 0.05 -0.00513517
0.33 0.11 0.05 0.00725933
0.34 0.11 0.05 0.0207163
0.35 0.11 0.05 0.0351955
0.36 0.11 0.05 0.0506523
0.37 0.11 0.05 0.0670386
0.38 0.11 0.05 0.0843029
0.39 0.11 0.05 0.10239
0.4 0.11 0.05 0.121243
0.41 0.11 0.05 0.1408
0.42 0.11 0.05 0.160999
0.43 0.11 0.05 0.181775
0.44 0.11 0.05 0.20306
0.45 0.11 0.05 0.224785
0.46 0.11 0.05 0.24688
0.47 0.11 0.05 0.269274
0.48 0.11 0.05 0.291892
0.49 0.11 0.05 0.314663
0.5 0.11 0.05 0.337512
0.51 0.11 0.05 0.360364
0.52 0.11 0.05 0.383145
0.53 0.11 0.05 0.405782
0.54 0.11 0.05 0.428199
0.55 0.11 0.05 0.450325
0.56 0.11 0.05 0.472086
0.57 0.11 0.05 0.493412
0.58 0.11 0.05 0.514232
0.59 0.11 0.05 0.53448
0.6 0.11 0.05 0.554089
0.61 0.11 0.05 0.572994
0.62 0.11 0.05 0.591135
0.63 0.11 0.05 0.608452
0.64 0.11 0.05 0.62489
0.65 0.11 0.05 0.640397
0.66 0.11 0.05 0.654922
0.67 0.11 0.05 0.668421
0.68 0.11 0.05 0.680852
0.69 0.11 0.05 0.692179
0.7 0.11 0.05 0.702369
0.71 0.11 0.05 0.711395
0.72 0.11 0.05 0.719235
0.73 0.11 0.05 0.725871
0.74 0.11 0.05 0.731293
0.75 0.11 0.05 0.735496
0.76 0.11 0.05 0.73848
0.77 0.11 0.05 0.740253
0.78 0.11 0.05 0.740828
0.79 0.11 0.05 0.740227
0.8 0.11 0.05 0.738478
0.81 0.11 0.05 0.735614
0.82 0.11 0.05 0.731678
0.83 0.11 0.05 0.726718
0.84 0.11 0.05 0.720791
0.85 0.11 0.05 0.713958
0.86 0.11 0.05 0.706288
0.87 0.11 0.05 0.697857
0.88 0.11 0.05 0.688744
0.89 0.11 0.05 0.679034
0.9 0.11 0.05 0.668816
0.91 0.11 0.05 0.65818
0.92 0.11 0.05 0.647219
0.93 0.11 0.05 0.636022
0.94 0.11 0.05 0.624676
0.95 0.11 0.05 0.613266
0.96 0.11 0.05 0.601875
0.97 0.11 0.05 0.590552
0.98 0.11 0.05 0.579084
0.99 0.11 0.05 0.567831
1 0.11 0.05 0.562403
0.01 0.12 0.05 0.123859
0 0.12 0.05 0.130139
0.02 0.12 0.05 0.110942
0.03 0.12 0.05 0.0980045
0.04 0.12 0.05 0.0854683
0.05 0.12 0.05 0.0730548
0.06 0.12 0.05 0.0607922
0.07 0.12 0.05 0.0487516
0.08 0.12 0.05 0.0369997
0.09 0.12 0.05 0.025607
0.1 0.12 0.05 0.0146482
0.11 0.12 0.05 0.00420003
0.12 0.12 0.05 -0.00566115
0.13 0.12 0.05 -0.0148603
0.14 0.12 0.05 -0.0233252
0.15 0.12 0.05 -0.030987
0.16 0.12 0.05 -0.0377816
0.17 0.12 0.05 -0.0436497
0.18 0.12 0.05 -0.0485375
0.19 0.12 0.05 -0.0523971
0.2 0.12 0.05 -0.0551867
0.21 0.12 0.05 -0.0568706
0.22 0.12 0.05 -0.0574193
0.23 0.12 0.05 -0.0568098
0.24 0.12 0.05 -0.055025
0.25 0.12 0.05 -0.052054
0.26 0.12 0.05 -0.0478921
0.27 0.12 0.05 -0.04254
0.28 0.12 0.05 -0.0360043
0.29 0.12 0.05 -0.028297
0.3 0.12 0.05 -0.0194353
0.31 0.12 0.05 -0.00944137