# U  POINT_DATA 10201
# x  y  z  U_x  U_y  U_z
0.01 0.01 0.05 1.33319e-05 -1.33517e-05 0
0 0.01 0.05 0 0 0
0 0 0.05 0 0 0
0.01 0 0.05 0 0 0
0.02 0.01 0.05 3.58717e-05 -1.86063e-05 0
0.02 0 0.05 0 0 0
0.03 0.01 0.05 5.94414e-05 -1.73984e-05 0
0.03 0 0.05 0 0 0
0.04 0.01 0.05 7.6125e-05 -1.17592e-05 0
0.04 0 0.05 0 0 0
0.05 0.01 0.05 8.03526e-05 -3.39606e-06 0
0.05 0 0.05 0 0 0
0.06 0.01 0.05 6.88611e-05 6.52708e-06 0
0.06 0 0.05 0 0 0
0.07 0.01 0.05 3.97658e-05 1.7233e-05 0
0.07 0 0.05 0 0 0
0.08 0.01 0.05 -7.86616e-06 2.82091e-05 0
0.08 0 0.05 0 0 0
0.09 0.01 0.05 -7.42928e-05 3.91165e-05 0
0.09 0 0.05 0 0 0
0.1 0.01 0.05 -0.000159298 4.97287e-05 0
0.1 0 0.05 0 0 0
0.11 0.01 0.05 -0.000262331 5.98929e-05 0
0.11 0 0.05 0 0 0
0.12 0.01 0.05 -0.000382604 6.95052e-05 0
0.12 0 0.05 0 0 0
0.13 0.01 0.05 -0.000519159 7.84946e-05 0
0.13 0 0.05 0 0 0
0.14 0.01 0.05 -0.00067092 8.68136e-05 0
0.14 0 0.05 0 0 0
0.15 0.01 0.05 -0.000836726 9.44309e-05 0
0.15 0 0.05 0 0 0
0.16 0.01 0.05 -0.00101536 0.000101327 0
0.16 0 0.05 0 0 0
0.17 0.01 0.05 -0.00120556 0.000107493 0
0.17 0 0.05 0 0 0
0.18 0.01 0.05 -0.00140606 0.000112923 0
0.18 0 0.05 0 0 0
0.19 0.01 0.05 -0.00161556 0.000117622 0
0.19 0 0.05 0 0 0
0.2 0.01 0.05 -0.00183279 0.000121594 0
0.2 0 0.05 0 0 0
0.21 0.01 0.05 -0.00205646 0.000124849 0
0.21 0 0.05 0 0 0
0.22 0.01 0.05 -0.00228531 0.0001274 0
0.22 0 0.05 0 0 0
0.23 0.01 0.05 -0.00251811 0.000129262 0
0.23 0 0.05 0 0 0
0.24 0.01 0.05 -0.00275362 0.00013045 0
0.24 0 0.05 0 0 0
0.25 0.01 0.05 -0.00299067 0.000130984 0
0.25 0 0.05 0 0 0
0.26 0.01 0.05 -0.00322809 0.000130882 0
0.26 0 0.05 0 0 0
0.27 0.01 0.05 -0.00346476 0.000130165 0
0.27 0 0.05 0 0 0
0.28 0.01 0.05 -0.00369959 0.000128856 0
0.28 0 0.05 0 0 0
0.29 0.01 0.05 -0.00393154 0.000126976 0
0.29 0 0.05 0 0 0
0.3 0.01 0.05 -0.00415959 0.00012455 0
0.3 0 0.05 0 0 0
0.31 0.01 0.05 -0.00438277 0.0001216 0
0.31 0 0.05 0 0 0
0.32 0.01 0.05 -0.00460017 0.000118151 0
0.32 0 0.05 0 0 0
0.33 0.01 0.05 -0.00481089 0.000114229 0
0.33 0 0.05 0 0 0
0.34 0.01 0.05 -0.00501411 0.000109858 0
0.34 0 0.05 0 0 0
0.35 0.01 0.05 -0.00520902 0.000105063 0
0.35 0 0.05 0 0 0
0.36 0.01 0.05 -0.00539489 9.98709e-05 0
0.36 0 0.05 0 0 0
0.37 0.01 0.05 -0.00557102 9.43072e-05 0
0.37 0 0.05 0 0 0
0.38 0.01 0.05 -0.00573675 8.83978e-05 0
0.38 0 0.05 0 0 0
0.39 0.01 0.05 -0.00589148 8.2169e-05 0
0.39 0 0.05 0 0 0
0.4 0.01 0.05 -0.00603464 7.56469e-05 0
0.4 0 0.05 0 0 0
0.41 0.01 0.05 -0.00616574 6.88578e-05 0
0.41 0 0.05 0 0 0
0.42 0.01 0.05 -0.00628431 6.18282e-05 0
0.42 0 0.05 0 0 0
0.43 0.01 0.05 -0.00638993 5.45845e-05 0
0.43 0 0.05 0 0 0
0.44 0.01 0.05 -0.00648223 4.71529e-05 0
0.44 0 0.05 0 0 0
0.45 0.01 0.05 -0.00656091 3.956e-05 0
0.45 0 0.05 0 0 0
0.46 0.01 0.05 -0.00662568 3.18322e-05 0
0.46 0 0.05 0 0 0
0.47 0.01 0.05 -0.00667633 2.3996e-05 0
0.47 0 0.05 0 0 0
0.48 0.01 0.05 -0.00671269 1.60779e-05 0
0.48 0 0.05 0 0 0
0.49 0.01 0.05 -0.00673462 8.10439e-06 0
0.49 0 0.05 0 0 0
0.5 0.01 0.05 -0.00674206 1.01993e-07 0
0.5 0 0.05 0 0 0
0.51 0.01 0.05 -0.00673496 -7.9027e-06 0
0.51 0 0.05 0 0 0
0.52 0.01 0.05 -0.00671337 -1.58831e-05 0
0.52 0 0.05 0 0 0
0.53 0.01 0.05 -0.00667733 -2.38124e-05 0
0.53 0 0.05 0 0 0
0.54 0.01 0.05 -0.00662698 -3.16641e-05 0
0.54 0 0.05 0 0 0
0.55 0.01 0.05 -0.00656247 -3.94113e-05 0
0.55 0 0.05 0 0 0
0.56 0.01 0.05 -0.00648403 -4.70272e-05 0
0.56 0 0.05 0 0 0
0.57 0.01 0.05 -0.00639191 -5.44849e-05 0
0.57 0 0.05 0 0 0
0.58 0.01 0.05 -0.00628643 -6.17576e-05 0
0.58 0 0.05 0 0 0
0.59 0.01 0.05 -0.00616796 -6.88183e-05 0
0.59 0 0.05 0 0 0
0.6 0.01 0.05 -0.00603689 -7.564e-05 0
0.6 0 0.05 0 0 0
0.61 0.01 0.05 -0.0058937 -8.21958e-05 0
0.61 0 0.05 0 0 0
0.62 0.01 0.05 -0.0057389 -8.84587e-05 0
0.62 0 0.05 0 0 0
0.63 0.01 0.05 -0.00557303 -9.44019e-05 0
0.63 0 0.05 0 0 0
0.64 0.01 0.05 -0.00539671 -9.99984e-05 0
0.64 0 0.05 0 0 0
0.65 0.01 0.05 -0.00521058 -0.000105222 0
0.65 0 0.05 0 0 0
0.66 0.01 0.05 -0.00501537 -0.000110045 0
0.66 0 0.05 0 0 0
0.67 0.01 0.05 -0.0048118 -0.000114442 0
0.67 0 0.05 0 0 0
0.68 0.01 0.05 -0.00460069 -0.000118387 0
0.68 0 0.05 0 0 0
0.69 0.01 0.05 -0.00438287 -0.000121855 0
0.69 0 0.05 0 0 0
0.7 0.01 0.05 -0.00415923 -0.000124818 0
0.7 0 0.05 0 0 0
0.71 0.01 0.05 -0.00393071 -0.000127254 0
0.71 0 0.05 0 0 0
0.72 0.01 0.05 -0.00369827 -0.000129138 0
0.72 0 0.05 0 0 0
0.73 0.01 0.05 -0.00346296 -0.000130446 0
0.73 0 0.05 0 0 0
0.74 0.01 0.05 -0.00322581 -0.000131155 0
0.74 0 0.05 0 0 0
0.75 0.01 0.05 -0.00298792 -0.000131245 0
0.75 0 0.05 0 0 0
0.76 0.01 0.05 -0.00275044 -0.000130693 0
0.76 0 0.05 0 0 0
0.77 0.01 0.05 -0.00251453 -0.000129482 0
0.77 0 0.05 0 0 0
0.78 0.01 0.05 -0.00228138 -0.000127592 0
0.78 0 0.05 0 0 0
0.79 0.01 0.05 -0.00205223 -0.000125008 0
0.79 0 0.05 0 0 0
0.8 0.01 0.05 -0.00182831 -0.000121716 0
0.8 0 0.05 0 0 0
0.81 0.01 0.05 -0.00161091 -0.000117704 0
0.81 0 0.05 0 0 0
0.82 0.01 0.05 -0.0014013 -0.000112963 0
0.82 0 0.05 0 0 0
0.83 0.01 0.05 -0.00120078 -0.000107488 0
0.83 0 0.05 0 0 0
0.84 0.01 0.05 -0.00101062 -0.000101278 0
0.84 0 0.05 0 0 0
0.85 0.01 0.05 -0.000832111 -9.43377e-05 0
0.85 0 0.05 0 0 0
0.86 0.01 0.05 -0.000666501 -8.66784e-05 0
0.86 0 0.05 0 0 0
0.87 0.01 0.05 -0.000515005 -7.83204e-05 0
0.87 0 0.05 0 0 0
0.88 0.01 0.05 -0.000378777 -6.92965e-05 0
0.88 0 0.05 0 0 0
0.89 0.01 0.05 -0.000258885 -5.96556e-05 0
0.89 0 0.05 0 0 0
0.9 0.01 0.05 -0.000156276 -4.94699e-05 0
0.9 0 0.05 0 0 0
0.91 0.01 0.05 -7.17246e-05 -3.8845e-05 0
0.91 0 0.05 0 0 0
0.92 0.01 0.05 -5.76531e-06 -2.79349e-05 0
0.92 0 0.05 0 0 0
0.93 0.01 0.05 4.14032e-05 -1.69675e-05 0
0.93 0 0.05 0 0 0
0.94 0.01 0.05 7.00584e-05 -6.28284e-06 0
0.94 0 0.05 0 0 0
0.95 0.01 0.05 8.11534e-05 3.60565e-06 0
0.95 0 0.05 0 0 0
0.96 0.01 0.05 7.65933e-05 1.19209e-05 0
0.96 0 0.05 0 0 0
0.97 0.01 0.05 5.96601e-05 1.7501e-05 0
0.97 0 0.05 0 0 0
0.98 0.01 0.05 3.59389e-05 1.86435e-05 0
0.98 0 0.05 0 0 0
0.99 0.01 0.05 1.33391e-05 1.33326e-05 0
0.99 0 0.05 0 0 0
1 0 0.05 0 0 0
1 0.01 0.05 0 0 0
0.01 0.02 0.05 1.86422e-05 -3.5898e-05 0
0 0.02 0.05 0 0 0
0.02 0.02 0.05 4.77481e-05 -4.76458e-05 0
0.03 0.02 0.05 7.39347e-05 -4.0834e-05 0
0.04 0.02 0.05 8.56665e-05 -2.10363e-05 0
0.05 0.02 0.05 7.44261e-05 7.22406e-06 0
0.06 0.02 0.05 3.48391e-05 4.06454e-05 0
0.07 0.02 0.05 -3.64273e-05 7.68911e-05 0
0.08 0.02 0.05 -0.000141185 0.000114324 0
0.09 0.02 0.05 -0.000280097 0.000151796 0
0.1 0.02 0.05 -0.000452975 0.000188498 0
0.11 0.02 0.05 -0.000659 0.000223859 0
0.12 0.02 0.05 -0.000896882 0.00025747 0
0.13 0.02 0.05 -0.00116499 0.000289041 0
0.14 0.02 0.05 -0.00146143 0.000318369 0
0.15 0.02 0.05 -0.00178412 0.000345311 0
0.16 0.02 0.05 -0.00213087 0.000369773 0
0.17 0.02 0.05 -0.00249937 0.000391696 0
0.18 0.02 0.05 -0.00288726 0.000411049 0
0.19 0.02 0.05 -0.00329216 0.000427823 0
0.2 0.02 0.05 -0.00371165 0.000442028 0
0.21 0.02 0.05 -0.00414334 0.000453686 0
0.22 0.02 0.05 -0.00458485 0.000462833 0
0.23 0.02 0.05 -0.00503383 0.000469512 0
0.24 0.02 0.05 -0.00548795 0.000473778 0
0.25 0.02 0.05 -0.00594497 0.00047569 0
0.26 0.02 0.05 -0.00640266 0.000475313 0
0.27 0.02 0.05 -0.00685889 0.000472719 0
0.28 0.02 0.05 -0.00731157 0.000467982 0
0.29 0.02 0.05 -0.00775868 0.00046118 0
0.3 0.02 0.05 -0.0081983 0.000452397 0
0.31 0.02 0.05 -0.00862855 0.000441715 0
0.32 0.02 0.05 -0.00904766 0.000429222 0
0.33 0.02 0.05 -0.00945394 0.000415006 0
0.34 0.02 0.05 -0.00984576 0.000399158 0
0.35 0.02 0.05 -0.0102216 0.000381768 0
0.36 0.02 0.05 -0.01058 0.00036293 0
0.37 0.02 0.05 -0.0109197 0.000342737 0
0.38 0.02 0.05 -0.0112393 0.000321283 0
0.39 0.02 0.05 -0.0115377 0.000298663 0
0.4 0.02 0.05 -0.0118139 0.000274972 0
0.41 0.02 0.05 -0.0120667 0.000250307 0
0.42 0.02 0.05 -0.0122954 0.000224762 0
0.43 0.02 0.05 -0.0124992 0.000198435 0
0.44 0.02 0.05 -0.0126772 0.000171422 0
0.45 0.02 0.05 -0.012829 0.000143819 0
0.46 0.02 0.05 -0.0129539 0.000115723 0
0.47 0.02 0.05 -0.0130516 8.72302e-05 0
0.48 0.02 0.05 -0.0131218 5.84383e-05 0
0.49 0.02 0.05 -0.0131641 2.94442e-05 0
0.5 0.02 0.05 -0.0131784 3.44839e-07 0
0.51 0.02 0.05 -0.0131647 -2.87624e-05 0
0.52 0.02 0.05 -0.013123 -5.778e-05 0
0.53 0.02 0.05 -0.0130534 -8.66105e-05 0
0.54 0.02 0.05 -0.0129563 -0.000115156 0
0.55 0.02 0.05 -0.0128318 -0.000143319 0
0.56 0.02 0.05 -0.0126804 -0.000171001 0
0.57 0.02 0.05 -0.0125027 -0.000198105 0
0.58 0.02 0.05 -0.0122992 -0.000224531 0
0.59 0.02 0.05 -0.0120707 -0.000250182 0
0.6 0.02 0.05 -0.0118178 -0.00027496 0
0.61 0.02 0.05 -0.0115416 -0.000298766 0
0.62 0.02 0.05 -0.0112431 -0.000321503 0
0.63 0.02 0.05 -0.0109232 -0.000343072 0
0.64 0.02 0.05 -0.0105832 -0.000363378 0
0.65 0.02 0.05 -0.0102243 -0.000382323 0
0.66 0.02 0.05 -0.00984788 -0.000399811 0
0.67 0.02 0.05 -0.00945541 -0.000415748 0
0.68 0.02 0.05 -0.00904842 -0.000430041 0
0.69 0.02 0.05 -0.00862852 -0.000442597 0
0.7 0.02 0.05 -0.00819744 -0.000453326 0
0.71 0.02 0.05 -0.00775695 -0.00046214 0
0.72 0.02 0.05 -0.00730895 -0.000468955 0
0.73 0.02 0.05 -0.00685539 -0.000473686 0
0.74 0.02 0.05 -0.00639829 -0.000476255 0
0.75 0.02 0.05 -0.00593975 -0.000476588 0
0.76 0.02 0.05 -0.00548195 -0.000474614 0
0.77 0.02 0.05 -0.00502709 -0.000470267 0
0.78 0.02 0.05 -0.00457748 -0.000463489 0
0.79 0.02 0.05 -0.00413542 -0.000454229 0
0.8 0.02 0.05 -0.0037033 -0.000442444 0
0.81 0.02 0.05 -0.00328349 -0.000428102 0
0.82 0.02 0.05 -0.0028784 -0.000411182 0
0.83 0.02 0.05 -0.00249046 -0.000391678 0
0.84 0.02 0.05 -0.00212204 -0.000369603 0
0.85 0.02 0.05 -0.00177552 -0.000344992 0
0.86 0.02 0.05 -0.00145317 -0.000317907 0
0.87 0.02 0.05 -0.00115722 -0.000288447 0
0.88 0.02 0.05 -0.000889704 -0.000256758 0
0.89 0.02 0.05 -0.000652512 -0.00022305 0
0.9 0.02 0.05 -0.000447254 -0.000187618 0
0.91 0.02 0.05 -0.000275196 -0.000150872 0
0.92 0.02 0.05 -0.000137129 -0.00011339 0
0.93 0.02 0.05 -3.3213e-05 -7.59844e-05 0
0.94 0.02 0.05 3.72502e-05 -3.98058e-05 0
0.95 0.02 0.05 7.6106e-05 -6.49292e-06 0
0.96 0.02 0.05 8.67201e-05 2.16194e-05 0
0.97 0.02 0.05 7.44963e-05 4.12369e-05 0
0.98 0.02 0.05 4.79741e-05 4.78542e-05 0
0.99 0.02 0.05 1.86918e-05 3.59392e-05 0
1 0.02 0.05 0 0 0
0.01 0.03 0.05 1.75675e-05 -5.95811e-05 0
0 0.03 0.05 0 0 0
0.02 0.03 0.05 4.13184e-05 -7.39143e-05 0
0.03 0.03 0.05 5.52624e-05 -5.45733e-05 0
0.04 0.03 0.05 4.63738e-05 -1.14743e-05 0
0.05 0.03 0.05 4.78883e-06 4.76595e-05 0
0.06 0.03 0.05 -7.6027e-05 0.000116994 0
0.07 0.03 0.05 -0.000200318 0.000192211 0
0.08 0.03 0.05 -0.000370524 0.000270145 0
0.09 0.03 0.05 -0.000587657 0.000348483 0
0.1 0.03 0.05 -0.000851616 0.000425531 0
0.11 0.03 0.05 -0.00116144 0.000500049 0
0.12 0.03 0.05 -0.00151551 0.000571125 0
0.13 0.03 0.05 -0.0019117 0.000638095 0
0.14 0.03 0.05 -0.00234749 0.000700472 0
0.15 0.03 0.05 -0.00282009 0.00075791 0
0.16 0.03 0.05 -0.00332649 0.000810166 0
0.17 0.03 0.05 -0.00386352 0.000857081 0
0.18 0.03 0.05 -0.0044279 0.000898558 0
0.19 0.03 0.05 -0.00501629 0.000934555 0
0.2 0.03 0.05 -0.00562532 0.000965067 0
0.21 0.03 0.05 -0.00625161 0.000990128 0
0.22 0.03 0.05 -0.00689179 0.0010098 0
0.23 0.03 0.05 -0.00754252 0.00102416 0
0.24 0.03 0.05 -0.0082005 0.00103331 0
0.25 0.03 0.05 -0.00886251 0.00103738 0
0.26 0.03 0.05 -0.00952538 0.00103649 0
0.27 0.03 0.05 -0.010186 0.0010308 0
0.28 0.03 0.05 -0.0108415 0.00102046 0
0.29 0.03 0.05 -0.0114889 0.00100564 0
0.3 0.03 0.05 -0.0121254 0.000986503 0
0.31 0.03 0.05 -0.0127483 0.000963239 0
0.32 0.03 0.05 -0.0133551 0.000936029 0
0.33 0.03 0.05 -0.0139433 0.000905065 0
0.34 0.03 0.05 -0.0145106 0.000870539 0
0.35 0.03 0.05 -0.0150548 0.00083265 0
0.36 0.03 0.05 -0.0155738 0.000791598 0
0.37 0.03 0.05 -0.0160656 0.000747586 0
0.38 0.03 0.05 -0.0165284 0.000700819 0
0.39 0.03 0.05 -0.0169605 0.000651502 0
0.4 0.03 0.05 -0.0173604 0.000599844 0
0.41 0.03 0.05 -0.0177266 0.000546053 0
0.42 0.03 0.05 -0.0180578 0.000490338 0
0.43 0.03 0.05 -0.0183528 0.000432911 0
0.44 0.03 0.05 -0.0186107 0.000373981 0
0.45 0.03 0.05 -0.0188305 0.000313761 0
0.46 0.03 0.05 -0.0190114 0.000252461 0
0.47 0.03 0.05 -0.0191529 0.000190293 0
0.48 0.03 0.05 -0.0192545 0.00012747 0
0.49 0.03 0.05 -0.0193157 6.42051e-05 0
0.5 0.03 0.05 -0.0193364 7.10213e-07 0
0.51 0.03 0.05 -0.0193165 -6.28011e-05 0
0.52 0.03 0.05 -0.0192561 -0.000126115 0
0.53 0.03 0.05 -0.0191553 -0.000189019 0
0.54 0.03 0.05 -0.0190145 -0.000251297 0
0.55 0.03 0.05 -0.0188342 -0.000312737 0
0.56 0.03 0.05 -0.018615 -0.000373123 0
0.57 0.03 0.05 -0.0183576 -0.00043224 0
0.58 0.03 0.05 -0.0180628 -0.000489875 0
0.59 0.03 0.05 -0.0177318 -0.000545812 0
0.6 0.03 0.05 -0.0173657 -0.000599837 0
0.61 0.03 0.05 -0.0169657 -0.000651736 0
0.62 0.03 0.05 -0.0165334 -0.000701296 0
0.63 0.03 0.05 -0.0160702 -0.000748305 0
0.64 0.03 0.05 -0.0155779 -0.00079255 0
0.65 0.03 0.05 -0.0150582 -0.000833824 0
0.66 0.03 0.05 -0.0145133 -0.000871918 0
0.67 0.03 0.05 -0.0139451 -0.000906628 0
0.68 0.03 0.05 -0.0133559 -0.000937752 0
0.69 0.03 0.05 -0.012748 -0.000965091 0
0.7 0.03 0.05 -0.0121239 -0.000988454 0
0.71 0.03 0.05 -0.0114862 -0.00100765 0
0.72 0.03 0.05 -0.0108376 -0.0010225 0
0.73 0.03 0.05 -0.010181 -0.00103282 0
0.74 0.03 0.05 -0.0095191 -0.00103846 0
0.75 0.03 0.05 -0.00885507 -0.00103925 0
0.76 0.03 0.05 -0.00819197 -0.00103505 0
0.77 0.03 0.05 -0.00753299 -0.00102573 0
0.78 0.03 0.05 -0.00688139 -0.00101116 0
0.79 0.03 0.05 -0.00624046 -0.00099126 0
0.8 0.03 0.05 -0.00561357 -0.000965934 0
0.81 0.03 0.05 -0.00500411 -0.000935135 0
0.82 0.03 0.05 -0.00441546 -0.000898834 0
0.83 0.03 0.05 -0.00385101 -0.000857043 0
0.84 0.03 0.05 -0.0033141 -0.000809812 0
0.85 0.03 0.05 -0.00280801 -0.000757245 0
0.86 0.03 0.05 -0.00233589 -0.00069951 0
0.87 0.03 0.05 -0.00190075 -0.000636858 0
0.88 0.03 0.05 -0.00150537 -0.000569646 0
0.89 0.03 0.05 -0.00115225 -0.000498369 0
0.9 0.03 0.05 -0.000843471 -0.0004237 0
0.91 0.03 0.05 -0.000580635 -0.000346561 0
0.92 0.03 0.05 -0.000364663 -0.000268201 0
0.93 0.03 0.05 -0.000195615 -0.000190317 0
0.94 0.03 0.05 -7.24371e-05 -0.00011523 0
0.95 0.03 0.05 7.35386e-06 -4.61051e-05 0
0.96 0.03 0.05 4.80449e-05 1.27432e-05 0
0.97 0.03 0.05 5.62078e-05 5.54954e-05 0
0.98 0.03 0.05 4.17377e-05 7.44595e-05 0
0.99 0.03 0.05 1.76773e-05 5.97817e-05 0
1 0.03 0.05 0 0 0
0.01 0.04 0.05 1.21581e-05 -7.66462e-05 0
0 0.04 0.05 0 0 0
0.02 0.04 0.05 2.21867e-05 -8.61184e-05 0
0.03 0.04 0.05 1.33594e-05 -4.59012e-05 0
0.04 0.04 0.05 -2.75057e-05 2.97176e-05 0
0.05 0.04 0.05 -0.00011057 0.000129767 0
0.06 0.04 0.05 -0.000242816 0.000245785 0
0.07 0.04 0.05 -0.000428906 0.000371318 0
0.08 0.04 0.05 -0.000671598 0.000501481 0
0.09 0.04 0.05 -0.000972092 0.000632591 0
0.1 0.04 0.05 -0.00133032 0.000761872 0
0.11 0.04 0.05 -0.00174521 0.000887234 0
0.12 0.04 0.05 -0.00221489 0.0010071 0
0.13 0.04 0.05 -0.00273684 0.0011203 0
0.14 0.04 0.05 -0.00330806 0.00122596 0
0.15 0.04 0.05 -0.00392516 0.00132342 0
0.16 0.04 0.05 -0.00458445 0.00141223 0
0.17 0.04 0.05 -0.00528205 0.00149207 0
0.18 0.04 0.05 -0.00601391 0.00156273 0
0.19 0.04 0.05 -0.00677586 0.00162411 0
0.2 0.04 0.05 -0.0075637 0.00167617 0
0.21 0.04 0.05 -0.00837317 0.00171894 0
0.22 0.04 0.05 -0.00920003 0.00175249 0
0.23 0.04 0.05 -0.0100401 0.00177696 0
0.24 0.04 0.05 -0.0108891 0.00179249 0
0.25 0.04 0.05 -0.0117431 0.00179929 0
0.26 0.04 0.05 -0.0125979 0.00179757 0
0.27 0.04 0.05 -0.0134498 0.00178757 0
0.28 0.04 0.05 -0.0142947 0.00176955 0
0.29 0.04 0.05 -0.0151292 0.0017438 0
0.3 0.04 0.05 -0.0159496 0.00171059 0
0.31 0.04 0.05 -0.0167524 0.00167025 0
0.32 0.04 0.05 -0.0175344 0.00162308 0
0.33 0.04 0.05 -0.0182924 0.0015694 0
0.34 0.04 0.05 -0.0190234 0.00150956 0
0.35 0.04 0.05 -0.0197247 0.00144389 0
0.36 0.04 0.05 -0.0203934 0.00137273 0
0.37 0.04 0.05 -0.0210272 0.00129644 0
0.38 0.04 0.05 -0.0216236 0.00121536 0
0.39 0.04 0.05 -0.0221805 0.00112986 0
0.4 0.04 0.05 -0.0226957 0.00104029 0
0.41 0.04 0.05 -0.0231676 0.000947019 0
0.42 0.04 0.05 -0.0235944 0.000850405 0
0.43 0.04 0.05 -0.0239747 0.000750814 0
0.44 0.04 0.05 -0.024307 0.000648612 0
0.45 0.04 0.05 -0.0245902 0.000544165 0
0.46 0.04 0.05 -0.0248234 0.000437843 0
0.47 0.04 0.05 -0.0250057 0.000330013 0
0.48 0.04 0.05 -0.0251365 0.000221044 0
0.49 0.04 0.05 -0.0252154 0.000111307 0
0.5 0.04 0.05 -0.025242 1.17088e-06 0
0.51 0.04 0.05 -0.0252164 -0.000108992 0
0.52 0.04 0.05 -0.0251385 -0.000218812 0
0.53 0.04 0.05 -0.0250086 -0.000327915 0
0.54 0.04 0.05 -0.0248271 -0.000435931 0
0.55 0.04 0.05 -0.0245947 -0.000542485 0
0.56 0.04 0.05 -0.0243121 -0.000647207 0
0.57 0.04 0.05 -0.0239803 -0.000749723 0
0.58 0.04 0.05 -0.0236005 -0.00084966 0
0.59 0.04 0.05 -0.0231739 -0.000946645 0
0.6 0.04 0.05 -0.0227021 -0.00104031 0
0.61 0.04 0.05 -0.0221867 -0.00113028 0
0.62 0.04 0.05 -0.0216295 -0.00121618 0
0.63 0.04 0.05 -0.0210326 -0.00129766 0
0.64 0.04 0.05 -0.0203982 -0.00137434 0
0.65 0.04 0.05 -0.0197287 -0.00144587 0
0.66 0.04 0.05 -0.0190265 -0.00151188 0
0.67 0.04 0.05 -0.0182943 -0.00157203 0
0.68 0.04 0.05 -0.017535 -0.00162597 0
0.69 0.04 0.05 -0.0167517 -0.00167336 0
0.7 0.04 0.05 -0.0159475 -0.00171386 0
0.71 0.04 0.05 -0.0151257 -0.00174717 0
0.72 0.04 0.05 -0.0142897 -0.00177296 0
0.73 0.04 0.05 -0.0134432 -0.00179096 0
0.74 0.04 0.05 -0.0125899 -0.00180086 0
0.75 0.04 0.05 -0.0117336 -0.00180243 0
0.76 0.04 0.05 -0.0108783 -0.00179541 0
0.77 0.04 0.05 -0.0100281 -0.00177959 0
0.78 0.04 0.05 -0.00918696 -0.00175478 0
0.79 0.04 0.05 -0.00835918 -0.00172083 0
0.8 0.04 0.05 -0.00754897 -0.00167762 0
0.81 0.04 0.05 -0.00676061 -0.00162508 0
0.82 0.04 0.05 -0.00599834 -0.00156319 0
0.83 0.04 0.05 -0.00526639 -0.00149201 0
0.84 0.04 0.05 -0.00456893 -0.00141164 0
0.85 0.04 0.05 -0.00391 -0.00132231 0
0.86 0.04 0.05 -0.0032935 -0.00122436 0
0.87 0.04 0.05 -0.00272308 -0.00111825 0
0.88 0.04 0.05 -0.00220212 -0.00100464 0
0.89 0.04 0.05 -0.0017336 -0.000884435 0
0.9 0.04 0.05 -0.00131999 -0.000758822 0
0.91 0.04 0.05 -0.000963139 -0.000629386 0
0.92 0.04 0.05 -0.000664075 -0.00049823 0
0.93 0.04 0.05 -0.000422816 -0.000368141 0
0.94 0.04 0.05 -0.000238114 -0.000242808 0
0.95 0.04 0.05 -0.000107157 -0.000127118 0
0.96 0.04 0.05 -2.52348e-05 -2.75173e-05 0
0.97 0.04 0.05 1.46819e-05 4.75539e-05 0
0.98 0.04 0.05 2.27974e-05 8.71647e-05 0
0.99 0.04 0.05 1.2328e-05 7.71021e-05 0
1 0.04 0.05 0 0 0
0.01 0.05 0.05 4.10707e-06 -8.1653e-05 0
0 0.05 0.05 0 0 0
0.02 0.05 0.05 -5.18844e-06 -7.59364e-05 0
0.03 0.05 0.05 -4.42099e-05 -5.18045e-06 0
0.04 0.05 0.05 -0.000125309 0.000112452 0
0.05 0.05 0.05 -0.000258174 0.000262956 0
0.06 0.05 0.05 -0.000449695 0.000435351 0
0.07 0.05 0.05 -0.000704537 0.000621067 0
0.08 0.05 0.05 -0.00102549 0.000813456 0
0.09 0.05 0.05 -0.00141373 0.00100738 0
0.1 0.05 0.05 -0.00186915 0.00119887 0
0.11 0.05 0.05 -0.00239052 0.00138488 0
0.12 0.05 0.05 -0.00297571 0.00156305 0
0.13 0.05 0.05 -0.00362187 0.00173159 0
0.14 0.05 0.05 -0.00432559 0.00188915 0
0.15 0.05 0.05 -0.00508297 0.00203469 0
0.16 0.05 0.05 -0.00588978 0.00216748 0
0.17 0.05 0.05 -0.00674149 0.00228698 0
0.18 0.05 0.05 -0.00763339 0.00239282 0
0.19 0.05 0.05 -0.00856061 0.00248482 0
0.2 0.05 0.05 -0.00951819 0.00256286 0
0.21 0.05 0.05 -0.0105011 0.00262696 0
0.22 0.05 0.05 -0.0115044 0.0026772 0
0.23 0.05 0.05 -0.0125231 0.00271376 0
0.24 0.05 0.05 -0.0135521 0.00273683 0
0.25 0.05 0.05 -0.0145867 0.00274671 0
0.26 0.05 0.05 -0.015622 0.00274369 0
0.27 0.05 0.05 -0.0166534 0.00272813 0
0.28 0.05 0.05 -0.0176763 0.00270041 0
0.29 0.05 0.05 -0.0186862 0.00266094 0
0.3 0.05 0.05 -0.0196789 0.00261016 0
0.31 0.05 0.05 -0.0206503 0.00254853 0
0.32 0.05 0.05 -0.0215964 0.0024765 0
0.33 0.05 0.05 -0.0225134 0.00239458 0
0.34 0.05 0.05 -0.0233977 0.00230327 0
0.35 0.05 0.05 -0.024246 0.00220307 0
0.36 0.05 0.05 -0.0250549 0.0020945 0
0.37 0.05 0.05 -0.0258215 0.00197811 0
0.38 0.05 0.05 -0.0265428 0.00185442 0
0.39 0.05 0.05 -0.0272163 0.00172397 0
0.4 0.05 0.05 -0.0278396 0.00158732 0
0.41 0.05 0.05 -0.0284103 0.00144501 0
0.42 0.05 0.05 -0.0289265 0.0012976 0
0.43 0.05 0.05 -0.0293863 0.00114564 0
0.44 0.05 0.05 -0.0297882 0.000989689 0
0.45 0.05 0.05 -0.0301308 0.000830311 0
0.46 0.05 0.05 -0.0304128 0.000668067 0
0.47 0.05 0.05 -0.0306332 0.00050352 0
0.48 0.05 0.05 -0.0307914 0.000337234 0
0.49 0.05 0.05 -0.0308868 0.000169774 0
0.5 0.05 0.05 -0.030919 1.70589e-06 0
0.51 0.05 0.05 -0.0308879 -0.000166402 0
0.52 0.05 0.05 -0.0307937 -0.000333983 0
0.53 0.05 0.05 -0.0306365 -0.000500468 0
0.54 0.05 0.05 -0.030417 -0.000665288 0
0.55 0.05 0.05 -0.0301359 -0.000827874 0
0.56 0.05 0.05 -0.0297941 -0.000987657 0
0.57 0.05 0.05 -0.0293928 -0.00114407 0
0.58 0.05 0.05 -0.0289334 -0.00129654 0
0.59 0.05 0.05 -0.0284174 -0.0014445 0
0.6 0.05 0.05 -0.0278467 -0.00158738 0
0.61 0.05 0.05 -0.0272233 -0.00172462 0
0.62 0.05 0.05 -0.0265495 -0.00185566 0
0.63 0.05 0.05 -0.0258275 -0.00197995 0
0.64 0.05 0.05 -0.0250602 -0.00209691 0
0.65 0.05 0.05 -0.0242504 -0.00220602 0
0.66 0.05 0.05 -0.023401 -0.00230672 0
0.67 0.05 0.05 -0.0225154 -0.00239848 0
0.68 0.05 0.05 -0.0215969 -0.00248079 0
0.69 0.05 0.05 -0.0206493 -0.00255313 0
0.7 0.05 0.05 -0.0196762 -0.002615 0
0.71 0.05 0.05 -0.0186818 -0.00266593 0
0.72 0.05 0.05 -0.0176702 -0.00270545 0
0.73 0.05 0.05 -0.0166456 -0.00273313 0
0.74 0.05 0.05 -0.0156125 -0.00274855 0
0.75 0.05 0.05 -0.0145755 -0.00275134 0
0.76 0.05 0.05 -0.0135394 -0.00274114 0
0.77 0.05 0.05 -0.0125089 -0.00271764 0
0.78 0.05 0.05 -0.011489 -0.00268057 0
0.79 0.05 0.05 -0.0104847 -0.00262974 0
0.8 0.05 0.05 -0.00950085 -0.00256499 0
0.81 0.05 0.05 -0.00854265 -0.00248624 0
0.82 0.05 0.05 -0.00761506 -0.00239351 0
0.83 0.05 0.05 -0.00672305 -0.00228689 0
0.84 0.05 0.05 -0.0058715 -0.00216661 0
0.85 0.05 0.05 -0.00506511 -0.00203307 0
0.86 0.05 0.05 -0.0043084 -0.00188679 0
0.87 0.05 0.05 -0.0036056 -0.00172856 0
0.88 0.05 0.05 -0.00296058 -0.00155942 0
0.89 0.05 0.05 -0.00237672 -0.00138076 0
0.9 0.05 0.05 -0.00185684 -0.00119437 0
0.91 0.05 0.05 -0.00140302 -0.00100265 0
0.92 0.05 0.05 -0.00101644 -0.000808646 0
0.93 0.05 0.05 -0.000697168 -0.00061635 0
0.94 0.05 0.05 -0.000443959 -0.000430908 0
0.95 0.05 0.05 -0.00025397 -0.000258969 0
0.96 0.05 0.05 -0.000122476 -0.000109093 0
0.97 0.05 0.05 -4.25353e-05 7.76308e-06 0
0.98 0.05 0.05 -4.40061e-06 7.7641e-05 0
0.99 0.05 0.05 4.33143e-06 8.24575e-05 0
1 0.05 0.05 0 0 0
0.01 0.06 0.05 -5.45864e-06 -7.14215e-05 0
0 0.06 0.05 0 0 0
0.02 0.06 0.05 -3.76329e-05 -3.80893e-05 0
0.03 0.06 0.05 -0.000111888 7.40568e-05 0
0.04 0.06 0.05 -0.00023906 0.000243692 0
0.05 0.06 0.05 -0.000427804 0.000454151 0
0.06 0.06 0.05 -0.000684493 0.00069215 0
0.07 0.06 0.05 -0.00101346 0.000947122 0
0.08 0.06 0.05 -0.00141725 0.0012107 0
0.09 0.06 0.05 -0.00189686 0.0014763 0
0.1 0.06 0.05 -0.00245198 0.0017387 0
0.11 0.06 0.05 -0.00308117 0.00199384 0
0.12 0.06 0.05 -0.00378202 0.00223851 0
0.13 0.06 0.05 -0.00455137 0.00247025 0
0.14 0.06 0.05 -0.00538541 0.00268713 0
0.15 0.06 0.05 -0.0062798 0.00288768 0
0.16 0.06 0.05 -0.00722981 0.00307082 0
0.17 0.06 0.05 -0.00823038 0.00323575 0
0.18 0.06 0.05 -0.0092762 0.00338192 0
0.19 0.06 0.05 -0.0103618 0.00350899 0
0.2 0.06 0.05 -0.0114815 0.00361678 0
0.21 0.06 0.05 -0.0126297 0.00370526 0
0.22 0.06 0.05 -0.0138007 0.00377452 0
0.23 0.06 0.05 -0.0149888 0.00382474 0
0.24 0.06 0.05 -0.0161884 0.0038562 0
0.25 0.06 0.05 -0.0173938 0.00386926 0
0.26 0.06 0.05 -0.0185995 0.00386432 0
0.27 0.06 0.05 -0.0198003 0.00384187 0
0.28 0.06 0.05 -0.0209908 0.00380241 0
0.29 0.06 0.05 -0.022166 0.0037465 0
0.3 0.06 0.05 -0.023321 0.00367475 0
0.31 0.06 0.05 -0.0244509 0.00358778 0
0.32 0.06 0.05 -0.0255513 0.00348625 0
0.33 0.06 0.05 -0.0266177 0.00337082 0
0.34 0.06 0.05 -0.0276461 0.0032422 0
0.35 0.06 0.05 -0.0286324 0.00310111 0
0.36 0.06 0.05 -0.0295729 0.00294826 0
0.37 0.06 0.05 -0.0304641 0.0027844 0
0.38 0.06 0.05 -0.0313027 0.00261028 0
0.39 0.06 0.05 -0.0320856 0.00242665 0
0.4 0.06 0.05 -0.0328101 0.0022343 0
0.41 0.06 0.05 -0.0334735 0.00203398 0
0.42 0.06 0.05 -0.0340735 0.00182648 0
0.43 0.06 0.05 -0.034608 0.00161257 0
0.44 0.06 0.05 -0.0350752 0.00139305 0
0.45 0.06 0.05 -0.0354733 0.0011687 0
0.46 0.06 0.05 -0.035801 0.00094032 0
0.47 0.06 0.05 -0.0360573 0.000708691 0
0.48 0.06 0.05 -0.0362411 0.000474615 0
0.49 0.06 0.05 -0.0363519 0.000238886 0
0.5 0.06 0.05 -0.0363893 2.3029e-06 0
0.51 0.06 0.05 -0.0363532 -0.000234335 0
0.52 0.06 0.05 -0.0362436 -0.000470228 0
0.53 0.06 0.05 -0.0360609 -0.000704575 0
0.54 0.06 0.05 -0.0358057 -0.000936575 0
0.55 0.06 0.05 -0.0354789 -0.00116543 0
0.56 0.06 0.05 -0.0350816 -0.00139033 0
0.57 0.06 0.05 -0.0346151 -0.00161048 0
0.58 0.06 0.05 -0.0340811 -0.00182507 0
0.59 0.06 0.05 -0.0334813 -0.00203332 0
0.6 0.06 0.05 -0.032818 -0.00223442 0
0.61 0.06 0.05 -0.0320933 -0.00242758 0
0.62 0.06 0.05 -0.0313099 -0.00261201 0
0.63 0.06 0.05 -0.0304707 -0.00278694 0
0.64 0.06 0.05 -0.0295787 -0.00295158 0
0.65 0.06 0.05 -0.0286371 -0.00310516 0
0.66 0.06 0.05 -0.0276495 -0.00324694 0
0.67 0.06 0.05 -0.0266198 -0.00337617 0
0.68 0.06 0.05 -0.0255517 -0.00349212 0
0.69 0.06 0.05 -0.0244496 -0.00359408 0
0.7 0.06 0.05 -0.0233178 -0.00368137 0
0.71 0.06 0.05 -0.022161 -0.00375332 0
0.72 0.06 0.05 -0.0209838 -0.0038093 0
0.73 0.06 0.05 -0.0197913 -0.0038487 0
0.74 0.06 0.05 -0.0185886 -0.00387097 0
0.75 0.06 0.05 -0.017381 -0.00387559 0
0.76 0.06 0.05 -0.0161739 -0.00386208 0
0.77 0.06 0.05 -0.0149728 -0.00383004 0
0.78 0.06 0.05 -0.0137833 -0.00377912 0
0.79 0.06 0.05 -0.0126111 -0.00370907 0
0.8 0.06 0.05 -0.0114619 -0.0036197 0
0.81 0.06 0.05 -0.0103414 -0.00351095 0
0.82 0.06 0.05 -0.00925544 -0.00338286 0
0.83 0.06 0.05 -0.00820949 -0.00323564 0
0.84 0.06 0.05 -0.00720909 -0.00306965 0
0.85 0.06 0.05 -0.00625953 -0.00288547 0
0.86 0.06 0.05 -0.00536588 -0.00268393 0
0.87 0.06 0.05 -0.00453286 -0.00246613 0
0.88 0.06 0.05 -0.00376477 -0.00223358 0
0.89 0.06 0.05 -0.0030654 -0.00198822 0
0.9 0.06 0.05 -0.00243788 -0.00173256 0
0.91 0.06 0.05 -0.00188455 -0.00146983 0
0.92 0.06 0.05 -0.0014068 -0.00120411 0
0.93 0.06 0.05 -0.00100491 -0.000940634 0
0.94 0.06 0.05 -0.000677804 -0.000686007 0
0.95 0.06 0.05 -0.000422869 -0.000448599 0
0.96 0.06 0.05 -0.000235711 -0.000238962 0
0.97 0.06 0.05 -0.000109891 -7.03584e-05 0
0.98 0.06 0.05 -3.66849e-05 4.05976e-05 0
0.99 0.06 0.05 -5.18601e-06 7.26596e-05 0
1 0.06 0.05 0 0 0
0.01 0.07 0.05 -1.58109e-05 -4.40756e-05 0
0 0.07 0.05 0 0 0
0.02 0.07 0.05 -7.2977e-05 3.08003e-05 0
0.03 0.07 0.05 -0.000185707 0.000196191 0
0.04 0.07 0.05 -0.000362906 0.000428346 0
0.05 0.07 0.05 -0.000611807 0.000708385 0
0.06 0.07 0.05 -0.000937945 0.001021 0
0.07 0.07 0.05 -0.00134504 0.00135382 0
0.08 0.07 0.05 -0.00183519 0.00169687 0
0.09 0.07 0.05 -0.00240903 0.00204213 0
0.1 0.07 0.05 -0.00306591 0.00238318 0
0.11 0.07 0.05 -0.00380408 0.00271492 0
0.12 0.07 0.05 -0.00462084 0.00303326 0
0.13 0.07 0.05 -0.00551267 0.00333499 0
0.14 0.07 0.05 -0.00647537 0.00361759 0
0.15 0.07 0.05 -0.00750422 0.00387911 0
0.16 0.07 0.05 -0.00859399 0.00411807 0
0.17 0.07 0.05 -0.00973915 0.00433336 0
0.18 0.07 0.05 -0.0109338 0.00452422 0
0.19 0.07 0.05 -0.0121721 0.00469013 0
0.2 0.07 0.05 -0.0134476 0.00483081 0
0.21 0.07 0.05 -0.0147542 0.00494618 0
0.22 0.07 0.05 -0.0160855 0.0050363 0
0.23 0.07 0.05 -0.0174352 0.00510138 0
0.24 0.07 0.05 -0.018797 0.00514176 0
0.25 0.07 0.05 -0.0201648 0.00515787 0
0.26 0.07 0.05 -0.0215323 0.00515022 0
0.27 0.07 0.05 -0.0228937 0.00511942 0
0.28 0.07 0.05 -0.024243 0.00506614 0
0.29 0.07 0.05 -0.0255746 0.00499109 0
0.3 0.07 0.05 -0.0268829 0.00489505 0
0.31 0.07 0.05 -0.0281626 0.00477884 0
0.32 0.07 0.05 -0.0294086 0.00464331 0
0.33 0.07 0.05 -0.030616 0.00448936 0
0.34 0.07 0.05 -0.0317802 0.00431789 0
0.35 0.07 0.05 -0.0328965 0.00412984 0
0.36 0.07 0.05 -0.033961 0.00392619 0
0.37 0.07 0.05 -0.0349696 0.0037079 0
0.38 0.07 0.05 -0.0359185 0.00347597 0
0.39 0.07 0.05 -0.0368045 0.0032314 0
0.4 0.07 0.05 -0.0376242 0.00297522 0
0.41 0.07 0.05 -0.0383749 0.00270844 0
0.42 0.07 0.05 -0.0390537 0.00243211 0
0.43 0.07 0.05 -0.0396584 0.00214726 0
0.44 0.07 0.05 -0.0401869 0.00185493 0
0.45 0.07 0.05 -0.0406373 0.00155617 0
0.46 0.07 0.05 -0.041008 0.00125204 0
0.47 0.07 0.05 -0.0412979 0.000943599 0
0.48 0.07 0.05 -0.0415058 0.000631895 0
0.49 0.07 0.05 -0.0416312 0.000317993 0
0.5 0.07 0.05 -0.0416735 2.95531e-06 0
0.51 0.07 0.05 -0.0416325 -0.000312153 0
0.52 0.07 0.05 -0.0415085 -0.000626268 0
0.53 0.07 0.05 -0.0413018 -0.000938321 0
0.54 0.07 0.05 -0.0410131 -0.00124725 0
0.55 0.07 0.05 -0.0406434 -0.00155198 0
0.56 0.07 0.05 -0.0401939 -0.00185144 0
0.57 0.07 0.05 -0.0396661 -0.00214459 0
0.58 0.07 0.05 -0.0390619 -0.00243033 0
0.59 0.07 0.05 -0.0383834 -0.00270763 0
0.6 0.07 0.05 -0.0376328 -0.00297541 0
0.61 0.07 0.05 -0.0368128 -0.00323264 0
0.62 0.07 0.05 -0.0359264 -0.00347825 0
0.63 0.07 0.05 -0.0349768 -0.00371122 0
0.64 0.07 0.05 -0.0339673 -0.00393051 0
0.65 0.07 0.05 -0.0329017 -0.00413512 0
0.66 0.07 0.05 -0.0317839 -0.00432404 0
0.67 0.07 0.05 -0.0306182 -0.0044963 0
0.68 0.07 0.05 -0.029409 -0.00465093 0
0.69 0.07 0.05 -0.0281611 -0.00478701 0
0.7 0.07 0.05 -0.0268794 -0.00490363 0
0.71 0.07 0.05 -0.025569 -0.00499993 0
0.72 0.07 0.05 -0.0242353 -0.00507507 0
0.73 0.07 0.05 -0.0228839 -0.00512829 0
0.74 0.07 0.05 -0.0215204 -0.00515884 0
0.75 0.07 0.05 -0.0201508 -0.00516607 0
0.76 0.07 0.05 -0.0187811 -0.00514938 0
0.77 0.07 0.05 -0.0174175 -0.00510826 0
0.78 0.07 0.05 -0.0160663 -0.00504228 0
0.79 0.07 0.05 -0.0147336 -0.00495113 0
0.8 0.07 0.05 -0.013426 -0.00483461 0
0.81 0.07 0.05 -0.0121497 -0.00469269 0
0.82 0.07 0.05 -0.010911 -0.00452546 0
0.83 0.07 0.05 -0.00971612 -0.00433325 0
0.84 0.07 0.05 -0.00857111 -0.00411658 0
0.85 0.07 0.05 -0.00748181 -0.00387628 0
0.86 0.07 0.05 -0.00645376 -0.00361347 0
0.87 0.07 0.05 -0.00549215 -0.00332968 0
0.88 0.07 0.05 -0.00460169 -0.00302689 0
0.89 0.07 0.05 -0.00378654 -0.00270766 0
0.9 0.07 0.05 -0.00305017 -0.00237524 0
0.91 0.07 0.05 -0.00239525 -0.00203373 0
0.92 0.07 0.05 -0.00182347 -0.00168829 0
0.93 0.07 0.05 -0.00133542 -0.00134535 0
0.94 0.07 0.05 -0.000930381 -0.00101295 0
0.95 0.07 0.05 -0.000606202 -0.000701058 0
0.96 0.07 0.05 -0.000359084 -0.000422051 0