/*--------------------------------*- C++ -*----------------------------------*\
| =========                 |                                                 |
| \\      /  F ield         | OpenFOAM: The Open Source CFD Toolbox           |
|  \\    /   O peration     | Version:  v2012                                 |
|   \\  /    A nd           | Website:  www.openfoam.com                      |
|    \\/     M anipulation  |                                                 |
\*---------------------------------------------------------------------------*/
FoamFile
{
    version     2.0;
    format      ascii;
    class       volScalarField;
    location    "1554";
    object      p;
}
// * * * * * * * * * * * * * * * * * * * * * * * * * * * * * * * * * * * * * //

dimensions      [0 2 -2 0 0 0 0];


internalField   nonuniform List<scalar> 
10000
(
2.43893e-05
0.000493034
-0.0017156
-0.00727923
-0.015798
-0.0267823
-0.0397224
-0.0541188
-0.0695087
-0.085475
-0.101646
-0.117695
-0.133331
-0.148303
-0.16239
-0.175398
-0.187162
-0.19754
-0.20641
-0.213671
-0.21924
-0.22305
-0.225048
-0.225197
-0.223472
-0.219861
-0.214361
-0.206981
-0.197741
-0.186666
-0.173793
-0.159166
-0.142834
-0.124855
-0.105293
-0.0842157
-0.0616983
-0.0378197
-0.0126633
0.0136833
0.041129
0.0695792
0.0989365
0.129101
0.15997
0.19144
0.223404
0.255755
0.288384
0.321182
0.35404
0.386847
0.419493
0.451869
0.483866
0.515375
0.546289
0.576505
0.605917
0.634426
0.661932
0.68834
0.713557
0.737495
0.760068
0.781198
0.800807
0.818827
0.835192
0.849844
0.862733
0.873815
0.883053
0.890419
0.895897
0.899476
0.901159
0.90096
0.898904
0.89503
0.889392
0.882056
0.873109
0.862654
0.850813
0.837731
0.823575
0.808539
0.792846
0.77675
0.760542
0.744549
0.729145
0.714746
0.701814
0.690847
0.682351
0.676813
0.674627
0.675097
-0.000417312
4.34707e-05
-0.00196622
-0.00699363
-0.0146077
-0.0243935
-0.0359333
-0.0488072
-0.0626149
-0.0769874
-0.0915891
-0.106119
-0.120307
-0.133916
-0.146735
-0.15858
-0.169289
-0.178725
-0.186768
-0.193317
-0.19829
-0.201619
-0.20325
-0.203144
-0.201275
-0.197626
-0.192193
-0.184982
-0.176008
-0.165295
-0.152874
-0.138785
-0.123075
-0.105797
-0.0870096
-0.0667781
-0.0451723
-0.022267
0.00185888
0.0271221
0.0534361
0.0807108
0.108853
0.137768
0.167358
0.197522
0.22816
0.259168
0.290442
0.321879
0.353372
0.384817
0.416107
0.447138
0.477805
0.508006
0.537637
0.566599
0.594792
0.622121
0.64849
0.67381
0.697992
0.720951
0.742609
0.762888
0.781718
0.799034
0.814774
0.828886
0.841321
0.852041
0.861012
0.868211
0.873623
0.877242
0.879073
0.879132
0.877448
0.87406
0.869023
0.862405
0.854292
0.844785
0.834006
0.822093
0.80921
0.795542
0.781301
0.766728
0.752092
0.737694
0.723872
0.710993
0.699458
0.689685
0.682089
0.677083
0.675093
0.675566
0.00178897
0.00205975
5.46981e-05
-0.00465173
-0.0116027
-0.0204409
-0.0308224
-0.0423959
-0.0548192
-0.0677702
-0.0809504
-0.0940872
-0.106934
-0.119269
-0.130895
-0.141638
-0.151343
-0.159877
-0.167125
-0.172989
-0.177386
-0.180249
-0.181524
-0.181171
-0.179161
-0.175477
-0.170112
-0.163068
-0.154359
-0.144003
-0.13203
-0.118476
-0.103383
-0.0868
-0.0687829
-0.049392
-0.028693
-0.00675631
0.0163434
0.0405275
0.0657137
0.0918166
0.118748
0.146416
0.174729
0.203591
0.232905
0.262572
0.292495
0.322572
0.352703
0.382787
0.412724
0.442413
0.471754
0.500649
0.529001
0.556713
0.583691
0.609843
0.635081
0.659317
0.682468
0.704455
0.725202
0.744637
0.762693
0.77931
0.794431
0.808006
0.819993
0.830354
0.839061
0.846093
0.851439
0.855095
0.857069
0.857379
0.856055
0.853137
0.848681
0.842755
0.835442
0.826843
0.817073
0.806267
0.794582
0.782192
0.769297
0.756119
0.742906
0.729931
0.717493
0.705914
0.695535
0.686706
0.67977
0.675083
0.673098
0.673386
0.00734434
0.0070944
0.00477393
6.28779e-05
-0.00661112
-0.0149295
-0.0245955
-0.0353067
-0.0467665
-0.0586922
-0.0708185
-0.0829
-0.0947117
-0.10605
-0.116731
-0.126591
-0.135485
-0.143286
-0.149884
-0.155183
-0.159104
-0.161582
-0.162562
-0.162004
-0.15988
-0.15617
-0.150866
-0.143969
-0.135489
-0.125444
-0.11386
-0.100769
-0.0862108
-0.0702319
-0.0528838
-0.0342235
-0.0143132
0.00678046
0.0289865
0.0522302
0.0764332
0.101514
0.127388
0.153968
0.181166
0.20889
0.237047
0.265544
0.294285
0.323174
0.352114
0.38101
0.409764
0.438281
0.466464
0.49422
0.521454
0.548075
0.573993
0.599121
0.623372
0.646665
0.66892
0.69006
0.710016
0.728717
0.746103
0.762114
0.776698
0.789809
0.801406
0.811456
0.819934
0.82682
0.832105
0.835789
0.83788
0.838398
0.837372
0.834843
0.830866
0.825508
0.818849
0.810987
0.802031
0.792112
0.781375
0.769985
0.758128
0.746007
0.733849
0.7219
0.710425
0.699708
0.690043
0.681734
0.675075
0.670383
0.668087
0.667861
0.0158645
0.0147297
0.0117482
0.00673831
4.33653e-05
-0.00806184
-0.0173195
-0.0274689
-0.038253
-0.0494243
-0.0607481
-0.0720047
-0.0829911
-0.0935211
-0.103426
-0.112553
-0.120768
-0.12795
-0.133995
-0.138813
-0.142327
-0.144474
-0.145201
-0.144469
-0.14225
-0.138523
-0.13328
-0.12652
-0.118251
-0.10849
-0.0972594
-0.0845905
-0.0705201
-0.0550912
-0.0383527
-0.0203584
-0.0011674
0.019157
0.0405473
0.0629322
0.0862368
0.110383
0.135291
0.160876
0.187054
0.213737
0.240836
0.26826
0.295919
0.323721
0.351572
0.379379
0.407051
0.434495
0.461619
0.488332
0.514545
0.540169
0.565119
0.58931
0.612661
0.635093
0.65653
0.6769
0.696134
0.714168
0.730942
0.746402
0.760498
0.773186
0.784429
0.794195
0.802462
0.809212
0.814438
0.81814
0.820328
0.821022
0.820251
0.818055
0.814488
0.809614
0.803511
0.79627
0.787996
0.778812
0.768854
0.758274
0.747243
0.735949
0.724594
0.7134
0.7026
0.692444
0.683188
0.675092
0.668413
0.663425
0.660473
0.659369
0.0268875
0.024575
0.0206421
0.0150769
0.00810717
-4.09959e-05
-0.00914574
-0.0189837
-0.0293334
-0.0399794
-0.0507152
-0.0613459
-0.0716892
-0.0815766
-0.0908542
-0.099382
-0.107035
-0.113701
-0.119282
-0.123694
-0.126863
-0.12873
-0.129244
-0.128367
-0.126071
-0.122337
-0.117155
-0.110524
-0.102452
-0.0929518
-0.0820466
-0.0697644
-0.0561401
-0.0412144
-0.0250334
-0.00764849
0.0108843
0.0305046
0.0511479
0.072746
0.0952274
0.118517
0.142539
0.167211
0.192453
0.218181
0.244308
0.270749
0.297415
0.324218
0.351069
0.377878
0.404557
0.431016
0.457168
0.482925
0.508201
0.532912
0.556974
0.580308
0.602834
0.624478
0.645167
0.664832
0.683407
0.700831
0.717047
0.732003
0.745652
0.757954
0.768871
0.778377
0.786448
0.793069
0.798235
0.801946
0.804212
0.805052
0.804495
0.802582
0.799361
0.794895
0.789257
0.782534
0.774825
0.766241
0.756911
0.746975
0.736588
0.72592
0.715154
0.704485
0.69412
0.684275
0.675172
0.667034
0.660082
0.654542
0.650644
0.648369
0.0399429
0.0362464
0.0311409
0.0248081
0.0173475
0.00893587
-0.000237631
-0.00998353
-0.0201125
-0.0304381
-0.0407801
-0.0509662
-0.0608344
-0.0702332
-0.0790232
-0.087077
-0.0942794
-0.100528
-0.10573
-0.109809
-0.112694
-0.114331
-0.11467
-0.113677
-0.111324
-0.107593
-0.102474
-0.0959655
-0.0880747
-0.0788148
-0.0682064
-0.0562764
-0.0430579
-0.0285894
-0.012915
0.00391628
0.021851
0.0408313
0.0607954
0.0816781
0.103411
0.125921
0.149136
0.172977
0.197367
0.222224
0.247467
0.273011
0.298773
0.324666
0.350605
0.376505
0.402279
0.427841
0.453108
0.477994
0.502418
0.526297
0.549553
0.572106
0.593884
0.614812
0.634821
0.653846
0.671822
0.688693
0.704402
0.718901
0.732145
0.744095
0.754716
0.763982
0.771872
0.778372
0.783476
0.787185
0.789509
0.790467
0.790086
0.788404
0.785468
0.781336
0.776078
0.769774
0.762515
0.754407
0.745564
0.736117
0.726206
0.715982
0.705609
0.69526
0.685116
0.675364
0.666193
0.657792
0.650351
0.644047
0.638981
0.635329
0.0545795
0.0493648
0.042928
0.0356605
0.0275321
0.0186728
0.00924265
-0.000599376
-0.0106928
-0.0208777
-0.0309974
-0.0409012
-0.0504454
-0.0594953
-0.0679254
-0.0756206
-0.0824761
-0.0883978
-0.0933019
-0.0971154
-0.0997752
-0.101228
-0.101431
-0.100349
-0.0979569
-0.094238
-0.0891834
-0.0827918
-0.0750693
-0.0660292
-0.0556908
-0.0440802
-0.0312287
-0.0171736
-0.00195696
0.0143743
0.0317687
0.0501707
0.0695211
0.089757
0.110812
0.132618
0.155102
0.178192
0.20181
0.22588
0.250321
0.275053
0.299995
0.325065
0.350179
0.375254
0.400209
0.42496
0.449425
0.473524
0.497176
0.520303
0.542829
0.564678
0.585779
0.606061
0.625457
0.643903
0.66134
0.677711
0.692964
0.707051
0.719928
0.731559
0.741912
0.750959
0.758681
0.765066
0.770106
0.773804
0.776168
0.777215
0.776972
0.775474
0.772765
0.768899
0.763939
0.757962
0.75105
0.7433
0.734817
0.725719
0.71613
0.706188
0.696037
0.685829
0.67572
0.665871
0.656444
0.647597
0.63949
0.632255
0.625863
0.620698
0.070388
0.0635756
0.0556999
0.0473717
0.0384348
0.0289773
0.0191337
0.0090362
-0.00118056
-0.0113803
-0.021428
-0.0311924
-0.0405474
-0.0493736
-0.0575592
-0.0650008
-0.0716039
-0.077283
-0.0819621
-0.0855741
-0.0880614
-0.089375
-0.0894752
-0.0883302
-0.0859169
-0.0822197
-0.077231
-0.0709501
-0.0633832
-0.0545433
-0.0444495
-0.0331267
-0.0206056
-0.00692173
0.00788405
0.0237665
0.040676
0.0585591
0.0773585
0.0970135
0.11746
0.138633
0.160461
0.182874
0.205799
0.22916
0.25288
0.276882
0.301087
0.325415
0.349787
0.374121
0.398339
0.42236
0.446104
0.469495
0.492454
0.514906
0.536777
0.557994
0.578487
0.598189
0.617036
0.634965
0.651918
0.667842
0.682685
0.696402
0.708951
0.720295
0.730404
0.739253
0.746821
0.753096
0.758072
0.761749
0.764135
0.765246
0.765106
0.763748
0.761211
0.757546
0.752812
0.747076
0.740416
0.732919
0.72468
0.715804
0.706404
0.6966
0.68652
0.676295
0.666063
0.655958
0.646118
0.636674
0.62776
0.619467
0.611641
0.604884
0.0870081
0.0785578
0.0691754
0.0596944
0.04984
0.039663
0.0292767
0.01879
0.00831472
-0.0020339
-0.0121403
-0.021891
-0.031176
-0.0398901
-0.0479346
-0.0552173
-0.0616537
-0.0671668
-0.071688
-0.0751567
-0.0775207
-0.0787355
-0.078765
-0.0775807
-0.0751617
-0.0714945
-0.0665726
-0.0603963
-0.0529724
-0.0443139
-0.0344398
-0.0233746
-0.011148
0.00220503
0.0166451
0.0321282
0.0486064
0.0660277
0.0843367
0.103475
0.12338
0.143988
0.165231
0.187042
0.209348
0.232077
0.255154
0.278504
0.302051
0.325718
0.349427
0.3731
0.39666
0.42003
0.443133
0.465893
0.488234
0.510085
0.531372
0.552026
0.57198
0.591167
0.609525
0.626994
0.643518
0.659045
0.673524
0.686913
0.699169
0.710258
0.72015
0.728818
0.736245
0.742417
0.747327
0.750975
0.753368
0.754519
0.75445
0.75319
0.750777
0.747255
0.742678
0.737107
0.730613
0.723273
0.715173
0.706408
0.697076
0.687284
0.677144
0.666769
0.656277
0.645783
0.6354
0.625237
0.615408
0.605965
0.596636
0.588247
0.104126
0.0940251
0.0830976
0.0723993
0.0615445
0.0505519
0.0395176
0.0285304
0.0176824
0.00707018
-0.00320797
-0.0130545
-0.0223742
-0.0310752
-0.0390708
-0.0462794
-0.052626
-0.0580422
-0.0624665
-0.0658447
-0.0681299
-0.0692825
-0.0692703
-0.0680679
-0.0656572
-0.0620267
-0.0571716
-0.0510934
-0.0437997
-0.035304
-0.0256253
-0.014788
-0.00282136
0.0102404
0.0243586
0.0394904
0.055589
0.0726039
0.0904812
0.109164
0.128592
0.148702
0.16943
0.190709
0.212469
0.23464
0.257149
0.279924
0.302891
0.325973
0.349097
0.372187
0.395167
0.417962
0.440498
0.462701
0.484499
0.50582
0.526594
0.546753
0.566231
0.584965
0.602894
0.61996
0.636108
0.651286
0.665447
0.678546
0.690545
0.701409
0.711108
0.719616
0.726915
0.73299
0.737835
0.741447
0.743833
0.745002
0.744976
0.743778
0.741443
0.73801
0.733529
0.728054
0.721648
0.71438
0.706328
0.697573
0.688204
0.678315
0.668001
0.657361
0.646494
0.635499
0.624467
0.613489
0.602661
0.592003
0.581133
0.571098
0.121471
0.109725
0.0972343
0.0852756
0.073359
0.0614758
0.0497084
0.0381289
0.0268123
0.0158392
0.00529225
-0.00474515
-0.014191
-0.0229659
-0.0309939
-0.0382038
-0.0445294
-0.0499104
-0.0542923
-0.0576273
-0.0598738
-0.0609971
-0.0609686
-0.0597668
-0.0573761
-0.0537875
-0.0489981
-0.0430107
-0.035834
-0.0274822
-0.0179747
-0.00733603
0.00440468
0.0172136
0.0310528
0.04588
0.0616496
0.078312
0.0958146
0.114102
0.133115
0.152793
0.173073
0.193889
0.215174
0.236859
0.258874
0.281147
0.303607
0.326181
0.348795
0.371377
0.393851
0.416147
0.43819
0.459909
0.481233
0.502094
0.522422
0.542152
0.561219
0.579561
0.597119
0.613835
0.629658
0.644535
0.65842
0.67127
0.683047
0.693715
0.703245
0.711613
0.718797
0.724784
0.729565
0.733137
0.735503
0.736673
0.736662
0.735494
0.733197
0.729807
0.725366
0.719925
0.713537
0.706266
0.698179
0.689348
0.67985
0.669767
0.659181
0.648178
0.636841
0.625252
0.613487
0.601619
0.58973
0.577813
0.565384
0.553708
0.138807
0.125433
0.111377
0.0981309
0.085108
0.0722764
0.0597081
0.0474612
0.0355964
0.02418
0.0132815
0.00297151
-0.00667994
-0.0156045
-0.0237365
-0.031014
-0.0373793
-0.0427797
-0.0471676
-0.0505013
-0.0527445
-0.053867
-0.0538447
-0.0526591
-0.050298
-0.0467546
-0.0420281
-0.0361231
-0.0290495
-0.0208224
-0.0114619
-0.000992778
0.0105557
0.0231498
0.0367519
0.0513205
0.0668103
0.0831729
0.100357
0.118307
0.136966
0.156275
0.176172
0.196593
0.217471
0.238741
0.260332
0.282177
0.304204
0.326342
0.34852
0.370666
0.392708
0.414575
0.436197
0.457503
0.478424
0.498891
0.51884
0.538204
0.556921
0.574931
0.592174
0.608595
0.624142
0.638765
0.652417
0.665057
0.676645
0.687148
0.696535
0.70478
0.711865
0.717772
0.722492
0.72602
0.728358
0.729513
0.729496
0.728328
0.726034
0.722644
0.718196
0.712733
0.706304
0.698962
0.690768
0.681784
0.672078
0.661719
0.650779
0.63933
0.627442
0.615184
0.602617
0.589799
0.576805
0.563603
0.549611
0.536311
0.155931
0.140953
0.125339
0.11079
0.0966298
0.0828061
0.0693832
0.056408
0.0439289
0.0320003
0.02068
0.0100275
0.000102157
-0.00903774
-0.0173359
-0.0247389
-0.031197
-0.0366648
-0.0411011
-0.0444699
-0.0467404
-0.047887
-0.0478894
-0.046733
-0.0444084
-0.0409115
-0.0362438
-0.0304115
-0.0234261
-0.0153039
-0.00606566
0.00426315
0.0156529
0.0280698
0.0414764
0.0558314
0.0710901
0.0872046
0.104124
0.121795
0.14016
0.159162
0.17874
0.198831
0.21937
0.240292
0.26153
0.283016
0.304681
0.326455
0.348268
0.37005
0.391731
0.413241
0.434511
0.455473
0.476057
0.496199
0.515832
0.534894
0.553321
0.571056
0.588039
0.604218
0.619539
0.633953
0.647415
0.659882
0.671317
0.681684
0.690953
0.699097
0.706097
0.711934
0.716598
0.720082
0.722385
0.723512
0.723471
0.722279
0.719956
0.71653
0.712032
0.706499
0.699974
0.692505
0.684141
0.674938
0.664954
0.654249
0.642884
0.630919
0.618415
0.605426
0.592002
0.578192
0.56406
0.549557
0.53401
0.519109
0.172665
0.156111
0.138952
0.123095
0.107776
0.0929269
0.0786074
0.0648548
0.0517072
0.0392089
0.0274079
0.0163535
0.00609578
-0.00331591
-0.0118338
-0.0194124
-0.0260093
-0.0315858
-0.036107
-0.0395424
-0.0418663
-0.0430575
-0.0430999
-0.0419824
-0.0396987
-0.0362475
-0.0316323
-0.0258617
-0.0189485
-0.0109104
-0.00176925
0.00844875
0.0197134
0.0319908
0.0452431
0.0594292
0.0745046
0.090422
0.107131
0.124578
0.142709
0.161464
0.180786
0.200611
0.220877
0.241519
0.262472
0.283668
0.30504
0.326519
0.348037
0.369525
0.390915
0.412137
0.433124
0.453809
0.474124
0.494004
0.513385
0.532205
0.550403
0.56792
0.584699
0.600686
0.615829
0.63008
0.643394
0.655728
0.667043
0.677304
0.686481
0.694546
0.701477
0.707257
0.711872
0.715312
0.717576
0.718665
0.718585
0.717348
0.714972
0.711478
0.706893
0.701249
0.694583
0.686934
0.678347
0.668868
0.658548
0.647437
0.635587
0.623049
0.609872
0.596103
0.581781
0.566944
0.551654
0.535842
0.518752
0.502278
0.188856
0.170753
0.152067
0.134899
0.118408
0.10251
0.0872617
0.0726923
0.058832
0.0457166
0.0333853
0.0218791
0.0112395
0.00150796
-0.0072754
-0.0150724
-0.0218474
-0.0275679
-0.0322049
-0.0357333
-0.0381321
-0.0393846
-0.0394788
-0.0384068
-0.0361657
-0.0327568
-0.0281863
-0.0224645
-0.0156062
-0.00763047
0.00143959
0.0115769
0.0227505
0.0349259
0.048065
0.0621267
0.0770665
0.0928372
0.109389
0.126668
0.144621
0.163191
0.182317
0.20194
0.221998
0.242426
0.26316
0.284134
0.305281
0.326534
0.347826
0.36909
0.390256
0.411258
0.432029
0.452503
0.472613
0.492296
0.511488
0.530127
0.548153
0.565508
0.582136
0.597983
0.612998
0.627131
0.640339
0.652577
0.663807
0.673994
0.683105
0.691114
0.697995
0.70373
0.708304
0.711705
0.713929
0.714974
0.714843
0.713545
0.711093
0.707505
0.702803
0.697012
0.690165
0.682294
0.673437
0.663635
0.652928
0.641361
0.628976
0.615817
0.601923
0.587334
0.57208
0.556192
0.539728
0.522607
0.503991
0.485972
0.204365
0.184743
0.164546
0.146072
0.128401
0.111437
0.0952339
0.0798165
0.0652076
0.051436
0.0385334
0.0265334
0.0154704
0.00537855
-0.00370892
-0.0117604
-0.0187465
-0.0246406
-0.029419
-0.0330619
-0.0355528
-0.0368794
-0.0370334
-0.0360106
-0.033811
-0.030439
-0.0259029
-0.0202154
-0.0133932
-0.00545691
0.00356903
0.0136564
0.0247734
0.0368849
0.0499522
0.063934
0.0787855
0.0944595
0.110906
0.128073
0.145906
0.164348
0.183341
0.202824
0.222737
0.243016
0.263597
0.284415
0.305405
0.3265
0.347633
0.368739
0.389749
0.410598
0.43122
0.451548
0.471518
0.491066
0.51013
0.528648
0.54656
0.56381
0.58034
0.596098
0.611032
0.625094
0.638237
0.650419
0.6616
0.671743
0.680817
0.688792
0.695643
0.701349
0.705892
0.709261
0.711446
0.712444
0.712254
0.710883
0.708339
0.704635
0.699789
0.693823
0.686761
0.678632
0.669467
0.6593
0.648165
0.636099
0.623137
0.609317
0.594671
0.579229
0.563017
0.546061
0.528415
0.509987
0.489862
0.470325
0.219072
0.197957
0.176268
0.156493
0.137637
0.119594
0.102418
0.0861276
0.0707412
0.0562814
0.0427738
0.0302455
0.0187245
0.00823867
-0.00118502
-0.00952091
-0.0167453
-0.0228371
-0.0277777
-0.031552
-0.034148
-0.0355576
-0.0357761
-0.0348028
-0.0326409
-0.0292976
-0.0247838
-0.0191143
-0.0123077
-0.00438654
0.00462338
0.0146926
0.0257882
0.0378742
0.0509114
0.0648578
0.0796685
0.0952959
0.11169
0.128799
0.146569
0.164942
0.183861
0.203267
0.223097
0.243291
0.263784
0.284512
0.305411
0.326414
0.347456
0.36847
0.389392
0.410153
0.43069
0.450937
0.47083
0.490306
0.509303
0.527759
0.545615
0.562815
0.579301
0.595021
0.609923
0.623957
0.637079
0.649244
0.660412
0.670545
0.679611
0.687578
0.694419
0.700113
0.704639
0.707983
0.710134
0.711085
0.710833
0.70938
0.70673
0.702894
0.697884
0.691718
0.684415
0.675997
0.666492
0.655925
0.644327
0.631727
0.618155
0.603641
0.588212
0.571893
0.554704
0.536665
0.517833
0.498102
0.476487
0.455458
0.232868
0.210283
0.18712
0.166051
0.146008
0.126878
0.108713
0.0915302
0.0753432
0.0601694
0.0460292
0.0329443
0.020937
0.0100296
0.000243432
-0.00840116
-0.0158858
-0.0221943
-0.027313
-0.0312312
-0.0339413
-0.0354389
-0.0357232
-0.0347968
-0.032666
-0.0293408
-0.0248347
-0.0191648
-0.0123519
-0.00442001
0.00460323
0.014687
0.0257973
0.037897
0.0509462
0.0649023
0.0797197
0.0953507
0.111745
0.128851
0.146613
0.164976
0.183881
0.20327
0.223081
0.243253
0.263723
0.284426
0.305299
0.326276
0.347292
0.368282
0.389179
0.409919
0.430436
0.450666
0.470545
0.490011
0.509001
0.527454
0.545312
0.562516
0.579012
0.594744
0.609662
0.623716
0.636859
0.649048
0.660239
0.670396
0.679484
0.687469
0.694325
0.700025
0.70455
0.707881
0.710005
0.710912
0.710597
0.709057
0.706294
0.702313
0.697124
0.690738
0.683171
0.674441
0.664568
0.653575
0.641485
0.628323
0.614112
0.598878
0.582643
0.565426
0.547244
0.528114
0.508092
0.487065
0.463975
0.441478
0.245655
0.221621
0.196999
0.174641
0.153411
0.133187
0.114022
0.0959326
0.0789266
0.0630181
0.0482231
0.0345587
0.0220423
0.0106911
0.000521614
-0.00845081
-0.0162126
-0.0227522
-0.0280605
-0.0321309
-0.03496
-0.0365472
-0.0368952
-0.03601
-0.0339009
-0.0305807
-0.0260655
-0.0203749
-0.0135315
-0.00556157
0.00350571
0.013638
0.0248
0.0369535
0.0500576
0.0640687
0.0789409
0.0946258
0.111073
0.128229
0.146041
0.164451
0.183402
0.202835
0.222689
0.242903
0.263413
0.284156
0.305068
0.326084
0.34714
0.36817
0.389109
0.409891
0.430453
0.45073
0.470658
0.490174
0.509218
0.527727
0.545643
0.562908
0.579466
0.595263
0.610247
0.624367
0.637575
0.649828
0.661082
0.671297
0.680438
0.688471
0.695365
0.701094
0.705635
0.708967
0.711074
0.711944
0.711568
0.70994
0.707059
0.702926
0.697546
0.690927
0.683079
0.674017
0.663756
0.652314
0.639709
0.62596
0.611089
0.595113
0.578053
0.559923
0.540735
0.520507
0.499295
0.476977
0.452427
0.428481
0.257342
0.231876
0.205808
0.182167
0.159751
0.138428
0.118256
0.0992463
0.0814066
0.064747
0.0492797
0.0350176
0.0219741
0.0101618
-0.000407077
-0.00972175
-0.017773
-0.0245537
-0.0300588
-0.0342859
-0.0372352
-0.03891
-0.0393163
-0.0384634
-0.0363638
-0.0330329
-0.0284895
-0.0227555
-0.015856
-0.00781887
0.00132471
0.0115408
0.0227927
0.035041
0.0482436
0.062356
0.0773315
0.0931209
0.109673
0.126936
0.144853
0.163369
0.182425
0.201963
0.221922
0.242239
0.262853
0.2837
0.304716
0.325837
0.346997
0.368133
0.389178
0.410068
0.430738
0.451125
0.471164
0.490793
0.50995
0.528575
0.546606
0.563988
0.580663
0.596576
0.611674
0.625907
0.639226
0.651585
0.662941
0.673252
0.68248
0.69059
0.69755
0.703331
0.707907
0.711257
0.713361
0.714203
0.713772
0.712059
0.709059
0.70477
0.699192
0.692329
0.684189
0.674781
0.664116
0.652206
0.639068
0.624715
0.609164
0.59243
0.574529
0.555473
0.535271
0.513939
0.491536
0.467932
0.441934
0.416556
0.267845
0.240961
0.213457
0.188538
0.164935
0.142511
0.121323
0.101385
0.0827005
0.0652768
0.0491234
0.0342498
0.0206653
0.00837908
-0.00260093
-0.012268
-0.0206169
-0.0276444
-0.0333496
-0.0377339
-0.0408011
-0.042558
-0.0430141
-0.0421818
-0.0400765
-0.0367167
-0.0321236
-0.0263216
-0.0193379
-0.0112028
-0.00194902
0.00838765
0.019769
0.0321541
0.0454998
0.0597605
0.0748885
0.0908339
0.107545
0.124968
0.143048
0.161728
0.180949
0.200653
0.220777
0.241262
0.262043
0.283058
0.304243
0.325532
0.346863
0.368168
0.389384
0.410446
0.431289
0.451849
0.472062
0.491865
0.511196
0.529994
0.5482
0.565754
0.582599
0.598681
0.613945
0.628339
0.641815
0.654324
0.665822
0.676265
0.685616
0.693835
0.70089
0.706749
0.711384
0.714771
0.716887
0.717715
0.717238
0.715447
0.71233
0.707884
0.702106
0.694994
0.686554
0.676789
0.665708
0.653318
0.639632
0.624661
0.608416
0.59091
0.572156
0.552164
0.53094
0.5085
0.484905
0.46002
0.432583
0.405785
0.277086
0.248793
0.21986
0.193666
0.168877
0.145348
0.12314
0.102266
0.0827268
0.0645292
0.0476792
0.0321835
0.0180483
0.00527902
-0.00611991
-0.0161454
-0.0247961
-0.0320726
-0.0379775
-0.0425158
-0.045695
-0.0475253
-0.0480194
-0.0471929
-0.0450642
-0.0416545
-0.0369877
-0.0310907
-0.0239931
-0.0157271
-0.00632762
0.00416788
0.0157195
0.0282848
0.0418194
0.0562763
0.0716069
0.0877602
0.104684
0.122323
0.140623
0.159525
0.178971
0.198901
0.219254
0.239968
0.26098
0.282227
0.303645
0.325168
0.346733
0.368274
0.389726
0.411024
0.432103
0.452899
0.473349
0.493387
0.512953
0.531985
0.550422
0.568206
0.585277
0.601581
0.617061
0.631666
0.645345
0.658049
0.669731
0.680348
0.689857
0.698221
0.705402
0.711367
0.716086
0.719531
0.721679
0.722508
0.721999
0.720137
0.716912
0.712313
0.706334
0.698973
0.690228
0.6801
0.668595
0.655716
0.641472
0.625871
0.608922
0.590634
0.571017
0.55008
0.527829
0.504277
0.479489
0.453323
0.424454
0.396245
0.284989
0.255293
0.224936
0.197468
0.171491
0.146854
0.123622
0.101805
0.0814051
0.0624259
0.0448719
0.0287469
0.0140543
0.000796403
-0.0110256
-0.0214121
-0.0303652
-0.0378889
-0.0439895
-0.0486753
-0.0519574
-0.053849
-0.0543663
-0.0535279
-0.0513551
-0.047872
-0.0431051
-0.0370839
-0.0298402
-0.0214086
-0.011826
-0.0011317
0.0106326
0.0234229
0.0371932
0.0518954
0.0674796
0.0838938
0.101085
0.118997
0.137573
0.156757
0.176488
0.196706
0.217349
0.238356
0.259663
0.281206
0.302921
0.324743
0.346607
0.368448
0.390201
0.4118
0.433179
0.454276
0.475024
0.495361
0.515223
0.534548
0.553276
0.571345
0.588699
0.605278
0.621028
0.635894
0.649825
0.66277
0.674681
0.685511
0.695219
0.703762
0.711103
0.717205
0.722035
0.725565
0.727766
0.728614
0.728088
0.72617
0.722845
0.718101
0.711927
0.704317
0.695267
0.684775
0.672841
0.659468
0.644659
0.628421
0.610759
0.59168
0.571194
0.549305
0.52602
0.501352
0.475369
0.447924
0.417625
0.388011
0.291481
0.260385
0.228604
0.199862
0.172696
0.146948
0.122686
0.0999216
0.0786553
0.0588893
0.0406259
0.0238671
0.00861347
-0.00513539
-0.0173814
-0.028128
-0.0373805
-0.0451465
-0.0514353
-0.0562588
-0.0596312
-0.0615691
-0.0620917
-0.0612207
-0.0589804
-0.0553976
-0.0505018
-0.0443247
-0.0369008
-0.0282667
-0.0184616
-0.00752685
0.00449408
0.0175556
0.0316099
0.0466077
0.0624976
0.0792265
0.0967399
0.114982
0.133894
0.153418
0.173495
0.194062
0.215059
0.236422
0.258087
0.279991
0.302068
0.324254
0.346483
0.368689
0.390807
0.412772
0.434516
0.455977
0.477087
0.497785
0.518004
0.537684
0.556761
0.575176
0.592868
0.609779
0.625852
0.641031
0.655263
0.668497
0.680682
0.69177
0.701717
0.710478
0.718014
0.724286
0.729259
0.7329
0.735179
0.736068
0.735545
0.733587
0.730176
0.725296
0.718935
0.711082
0.70173
0.690874
0.678512
0.664641
0.649264
0.632383
0.614003
0.594128
0.572765
0.54992
0.525595
0.499807
0.472627
0.4439
0.412172
0.381152
0.29649
0.263992
0.230786
0.200768
0.172408
0.145545
0.12025
0.0965343
0.0743975
0.0538408
0.0348652
0.0174704
0.00165481
-0.0125845
-0.0252523
-0.036355
-0.045901
-0.0539008
-0.0603672
-0.0653152
-0.0687623
-0.0707282
-0.0712352
-0.0703081
-0.0679741
-0.0642628
-0.0592065
-0.0528395
-0.0451988
-0.0363233
-0.0262545
-0.0150356
-0.0027123
0.0106681
0.0250563
0.0404013
0.0566502
0.0737488
0.0916412
0.11027
0.129577
0.149503
0.169987
0.190966
0.212379
0.234161
0.256249
0.278578
0.301083
0.323698
0.346358
0.368995
0.391544
0.413939
0.436114
0.458003
0.47954
0.500661
0.5213
0.541396
0.560884
0.579702
0.597791
0.615089
0.63154
0.647086
0.661671
0.675243
0.687749
0.699141
0.709369
0.71839
0.72616
0.732637
0.737785
0.741568
0.743952
0.744909
0.744409
0.74243
0.73895
0.733949
0.727412
0.719326
0.709679
0.698463
0.685674
0.671306
0.65536
0.637834
0.618732
0.598057
0.575812
0.552005
0.526636
0.499723
0.47134
0.441328
0.408167
0.37574
0.299946
0.266042
0.231406
0.200105
0.170548
0.142566
0.116233
0.0915618
0.0685514
0.0472018
0.0275126
0.0094818
-0.00689424
-0.0216209
-0.0347055
-0.0461572
-0.0559875
-0.0642098
-0.07084
-0.0758963
-0.0793993
-0.0813718
-0.0818394
-0.0808296
-0.0783728
-0.0745016
-0.0692507
-0.0626573
-0.0547608
-0.0456028
-0.0352268
-0.0236784
-0.0110051
0.00274379
0.0175171
0.0332623
0.0499249
0.0674493
0.0857784
0.104854
0.124616
0.145004
0.165956
0.18741
0.209303
0.231569
0.254145
0.276965
0.299964
0.323074
0.346229
0.369364
0.39241
0.415302
0.437972
0.460354
0.482382
0.50399
0.525114
0.545687
0.565647
0.58493
0.603474
0.621218
0.638103
0.65407
0.669062
0.683023
0.695901
0.707642
0.718198
0.727521
0.735565
0.742287
0.747646
0.751604
0.754124
0.755175
0.754726
0.752748
0.749218
0.744114
0.737415
0.729107
0.719175
0.707607
0.694396
0.679535
0.66302
0.64485
0.625024
0.603545
0.580416
0.555641
0.529223
0.50118
0.471588
0.440284
0.405684
0.371843
0.301777
0.266458
0.230384
0.197795
0.167034
0.137927
0.110552
0.084922
0.0610356
0.038892
0.0184896
-0.000175127
-0.0171079
-0.0323163
-0.04581
-0.057601
-0.0677034
-0.0761338
-0.082911
-0.0880563
-0.0915933
-0.0935481
-0.0939493
-0.0928275
-0.0902161
-0.0861504
-0.0806682
-0.0738093
-0.0656159
-0.0561318
-0.045403
-0.0334774
-0.0204047
-0.00623611
0.00897538
0.0251753
0.0423078
0.0603155
0.07914
0.0987216
0.119
0.139912
0.161396
0.183389
0.205826
0.228642
0.251771
0.275148
0.298705
0.322377
0.346096
0.369794
0.393404
0.416858
0.44009
0.463032
0.485616
0.507777
0.529448
0.550562
0.571056
0.590865
0.609926
0.628175
0.645552
0.661996
0.677449
0.691854
0.705154
0.717296
0.728227
0.737897
0.746259
0.753266
0.758875
0.763044
0.765734
0.766911
0.766539
0.764589
0.761033
0.755845
0.749003
0.740488
0.730283
0.718374
0.704749
0.6894
0.672321
0.653507
0.632958
0.610673
0.586656
0.56091
0.533438
0.504256
0.473449
0.440845
0.404796
0.369531
0.301911
0.265166
0.227642
0.193755
0.161784
0.131546
0.103124
0.0765317
0.0517676
0.0288301
0.00771635
-0.0115786
-0.0290623
-0.0447445
-0.0586372
-0.0707549
-0.0811146
-0.0897356
-0.0966399
-0.101852
-0.105398
-0.107308
-0.107613
-0.106346
-0.103546
-0.0992483
-0.0934954
-0.0863294
-0.0777951
-0.067939
-0.0568096
-0.0444572
-0.0309335
-0.016292
-0.000587591
0.0161234
0.0337833
0.0523333
0.0717134
0.0918625
0.112719
0.134219
0.156299
0.178895
0.201941
0.225372
0.249121
0.273121
0.297305
0.321605
0.345954
0.370283
0.394524
0.418609
0.44247
0.466037
0.489244
0.512023
0.534307
0.556028
0.57712
0.597517
0.617156
0.635971
0.653899
0.67088
0.686851
0.701754
0.71553
0.728124
0.73948
0.749547
0.758272
0.765608
0.771508
0.775927
0.778825
0.780161
0.779899
0.778006
0.774449
0.769202
0.762238
0.753534
0.743072
0.730834
0.716806
0.700977
0.683339
0.663885
0.642614
0.619523
0.594615
0.567894
0.539361
0.509035
0.477003
0.443089
0.405578
0.368875
0.300275
0.262088
0.223101
0.187906
0.154714
0.123337
0.0938633
0.066306
0.0406631
0.0169326
-0.00488931
-0.0248091
-0.0428359
-0.0589817
-0.0732606
-0.0856899
-0.0962892
-0.105081
-0.112089
-0.117342
-0.12087
-0.122704
-0.122879
-0.121434
-0.118405
-0.113837
-0.107771
-0.100253
-0.0913317
-0.0810553
-0.0694751
-0.0566438
-0.0426155
-0.0274459
-0.0111919
0.00608811
0.0243348
0.0434875
0.0634847
0.0842638
0.105761
0.127913
0.150654
0.173919
0.197641
0.221754
0.246189
0.27088
0.295759
0.320756
0.345803
0.370831
0.395771
0.420554
0.445111
0.469372
0.493269
0.516733
0.539696
0.562088
0.583844
0.604894
0.625174
0.644618
0.663159
0.680736
0.697284
0.712743
0.727052
0.740152
0.751986
0.762499
0.771637
0.779349
0.785584
0.790296
0.79344
0.794974
0.794856
0.793052
0.789525
0.784244
0.777182
0.768311
0.75761
0.745059
0.730641
0.714343
0.696154
0.676066
0.654075
0.630179
0.604378
0.576677
0.547077
0.515598
0.482331
0.447093
0.408104
0.369947
0.296791
0.257146
0.216678
0.180161
0.145739
0.113216
0.0826839
0.0541581
0.0276356
0.00311399
-0.0194117
-0.0399492
-0.0585095
-0.0751064
-0.0897567
-0.10248
-0.113298
-0.122237
-0.129324
-0.13459
-0.138067
-0.139792
-0.139803
-0.138139
-0.134842
-0.129959
-0.123535
-0.115619
-0.106261
-0.0955133
-0.0834296
-0.0700651
-0.0554764
-0.0397213
-0.0228592
-0.00495019
0.0139442
0.0337617
0.0544391
0.0759121
0.098116
0.120985
0.144453
0.168453
0.192918
0.21778
0.242971
0.268421
0.294062
0.319825
0.345639
0.371435
0.397143
0.422694
0.448016
0.473039
0.497694
0.521911
0.54562
0.568752
0.591237
0.613006
0.633993
0.654129
0.673347
0.691582
0.708768
0.724843
0.739742
0.753406
0.765773
0.776786
0.786389
0.794526
0.801144
0.806195
0.809628
0.811399
0.811465