/*--------------------------------*- C++ -*----------------------------------*\
| =========                 |                                                 |
| \\      /  F ield         | OpenFOAM: The Open Source CFD Toolbox           |
|  \\    /   O peration     | Version:  v2012                                 |
|   \\  /    A nd           | Website:  www.openfoam.com                      |
|    \\/     M anipulation  |                                                 |
\*---------------------------------------------------------------------------*/
FoamFile
{
    version     2.0;
    format      ascii;
    class       surfaceScalarField;
    location    "1554";
    object      phi;
}
// * * * * * * * * * * * * * * * * * * * * * * * * * * * * * * * * * * * * * //

dimensions      [0 3 -1 0 0 0 0];
oriented        oriented;


internalField   nonuniform List<scalar> 
19800
(
7.74472e-09
-7.80069e-09
2.43606e-08
-1.66161e-08
4.26431e-08
-1.82824e-08
5.72773e-08
-1.4634e-08
6.49847e-08
-7.70721e-09
6.38444e-08
1.14046e-09
5.28314e-08
1.10133e-08
3.15061e-08
2.13257e-08
-1.87967e-10
3.16945e-08
-4.20536e-08
4.18662e-08
-9.37237e-08
5.16707e-08
-1.54716e-07
6.09929e-08
-2.24469e-07
6.97542e-08
-3.0237e-07
7.79016e-08
-3.87769e-07
8.53995e-08
-4.79993e-07
9.22256e-08
-5.78359e-07
9.83667e-08
-6.82175e-07
1.03817e-07
-7.9075e-07
1.08576e-07
-9.03398e-07
1.12649e-07
-1.01944e-06
1.16043e-07
-1.1382e-06
1.18767e-07
-1.25904e-06
1.20836e-07
-1.3813e-06
1.22264e-07
-1.50437e-06
1.23068e-07
-1.62763e-06
1.23264e-07
-1.7505e-06
1.22873e-07
-1.87242e-06
1.21914e-07
-1.99282e-06
1.20408e-07
-2.1112e-06
1.18377e-07
-2.22704e-06
1.15843e-07
-2.33987e-06
1.12828e-07
-2.44922e-06
1.09356e-07
-2.55467e-06
1.0545e-07
-2.6558e-06
1.01135e-07
-2.75224e-06
9.64335e-08
-2.84361e-06
9.13704e-08
-2.92958e-06
8.59702e-08
-3.00983e-06
8.02574e-08
-3.08409e-06
7.42566e-08
-3.15208e-06
6.79925e-08
-3.21357e-06
6.14899e-08
-3.26834e-06
5.47736e-08
-3.31621e-06
4.78683e-08
-3.35701e-06
4.0799e-08
-3.3906e-06
3.35904e-08
-3.41687e-06
2.62675e-08
-3.43572e-06
1.88551e-08
-3.4471e-06
1.13781e-08
-3.45096e-06
3.86157e-09
-3.44729e-06
-3.66965e-09
-3.4361e-06
-1.11905e-08
-3.41742e-06
-1.8676e-08
-3.39132e-06
-2.6101e-08
-3.35788e-06
-3.34404e-08
-3.31722e-06
-4.06691e-08
-3.26945e-06
-4.77617e-08
-3.21476e-06
-5.4693e-08
-3.15332e-06
-6.14377e-08
-3.08536e-06
-6.79705e-08
-3.01109e-06
-7.4266e-08
-2.93079e-06
-8.02988e-08
-2.84475e-06
-8.60437e-08
-2.75328e-06
-9.14754e-08
-2.65671e-06
-9.65687e-08
-2.55541e-06
-1.01299e-07
-2.44977e-06
-1.0564e-07
-2.3402e-06
-1.09569e-07
-2.22715e-06
-1.1306e-07
-2.11106e-06
-1.1609e-07
-1.99242e-06
-1.18636e-07
-1.87175e-06
-1.20673e-07
-1.74957e-06
-1.2218e-07
-1.62644e-06
-1.23135e-07
-1.50292e-06
-1.23517e-07
-1.37962e-06
-1.23306e-07
-1.25713e-06
-1.22483e-07
-1.1361e-06
-1.21031e-07
-1.01717e-06
-1.18933e-07
-9.00997e-07
-1.16176e-07
-7.88253e-07
-1.12746e-07
-6.7962e-07
-1.08634e-07
-5.75787e-07
-1.03834e-07
-4.77446e-07
-9.83414e-08
-3.85289e-07
-9.21584e-08
-2.99998e-07
-8.52916e-08
-2.22244e-07
-7.77551e-08
-1.52672e-07
-6.95728e-08
-9.18909e-08
-6.07813e-08
-4.04562e-08
-5.14352e-08
1.15748e-09
-4.16141e-08
3.25919e-08
-3.14348e-08
5.36601e-08
-2.10685e-08
6.44298e-08
-1.07699e-08
6.5353e-08
-9.23396e-10
5.74679e-08
7.88493e-09
4.2708e-08
1.47598e-08
2.43614e-08
1.83464e-08
7.74777e-09
1.66134e-08
7.74773e-09
1.65978e-08
-2.43989e-08
4.69003e-08
-4.69186e-08
7.65682e-08
-4.79502e-08
9.53298e-08
-3.33954e-08
9.60879e-08
-8.46506e-09
7.42436e-08
2.2985e-08
2.7045e-08
5.82121e-08
-4.69226e-08
9.52936e-08
-1.48112e-07
1.32885e-07
-2.76287e-07
1.70041e-07
-4.30711e-07
2.06095e-07
-6.1029e-07
2.40573e-07
-8.13672e-07
2.73136e-07
-1.03931e-06
3.03546e-07
-1.28555e-06
3.31633e-07
-1.55061e-06
3.57284e-07
-1.83266e-06
3.80424e-07
-2.12985e-06
4.01011e-07
-2.4403e-06
4.19025e-07
-2.76212e-06
4.34468e-07
-3.09343e-06
4.47357e-07
-3.43239e-06
4.57721e-07
-3.77715e-06
4.656e-07
-4.12593e-06
4.71043e-07
-4.47697e-06
4.74107e-07
-4.82855e-06
4.74854e-07
-5.17903e-06
4.73353e-07
-5.52679e-06
4.69677e-07
-5.87029e-06
4.63901e-07
-6.20802e-06
4.56107e-07
-6.53855e-06
4.46378e-07
-6.86052e-06
4.34798e-07
-7.17262e-06
4.21455e-07
-7.4736e-06
4.06438e-07
-7.76231e-06
3.89838e-07
-8.03762e-06
3.71747e-07
-8.2985e-06
3.52258e-07
-8.544e-06
3.31464e-07
-8.7732e-06
3.09459e-07
-8.98528e-06
2.86339e-07
-9.17949e-06
2.62199e-07
-9.35513e-06
2.37135e-07
-9.5116e-06
2.11241e-07
-9.64834e-06
1.84615e-07
-9.7649e-06
1.57352e-07
-9.86086e-06
1.2955e-07
-9.93589e-06
1.01304e-07
-9.98975e-06
7.27104e-08
-1.00222e-05
4.38671e-08
-1.00332e-05
1.48703e-08
-1.00227e-05
-1.41828e-08
-9.99073e-06
-4.31953e-08
-9.93733e-06
-7.20697e-08
-9.86273e-06
-1.00709e-07
-9.76715e-06
-1.29015e-07
-9.65093e-06
-1.56891e-07
-9.51446e-06
-1.84238e-07
-9.35819e-06
-2.10959e-07
-9.18267e-06
-2.36956e-07
-8.98851e-06
-2.6213e-07
-8.7764e-06
-2.86385e-07
-8.54707e-06
-3.09621e-07
-8.30138e-06
-3.31742e-07
-8.0402e-06
-3.5265e-07
-7.76452e-06
-3.72249e-07
-7.47538e-06
-3.90443e-07
-7.17388e-06
-4.07137e-07
-6.86122e-06
-4.22237e-07
-6.53863e-06
-4.3565e-07
-6.20743e-06
-4.47285e-07
-5.86902e-06
-4.57054e-07
-5.52482e-06
-4.6487e-07
-5.17635e-06
-4.70649e-07
-4.82518e-06
-4.7431e-07
-4.47292e-06
-4.75777e-07
-4.12125e-06
-4.74976e-07
-3.7719e-06
-4.7184e-07
-3.42662e-06
-4.66308e-07
-3.08723e-06
-4.58323e-07
-2.75557e-06
-4.47839e-07
-2.4335e-06
-4.34818e-07
-2.1229e-06
-4.19233e-07
-1.82567e-06
-4.0107e-07
-1.54368e-06
-3.80331e-07
-1.2788e-06
-3.57039e-07
-1.03285e-06
-3.31241e-07
-8.07587e-07
-3.03016e-07
-6.0468e-07
-2.72481e-07
-4.25652e-07
-2.3981e-07
-2.71841e-07
-2.05246e-07
-1.44323e-07
-1.69133e-07
-4.38084e-08
-1.31949e-07
2.94888e-08
-9.4366e-08
7.60496e-08
-5.73309e-08
9.73172e-08
-2.21913e-08
9.60723e-08
9.12964e-09
7.69389e-08
3.3893e-08
4.70316e-08
4.82535e-08
1.66202e-08
4.70246e-08
2.43678e-08
1.83503e-08
-4.27496e-08
4.81677e-08
-7.67362e-08
7.16913e-08
-7.14738e-08
7.6346e-08
-3.80498e-08
5.3104e-08
1.47771e-08
-4.22035e-09
8.03095e-08
-9.95668e-08
1.53559e-07
-2.35136e-07
2.30863e-07
-4.11795e-07
3.09545e-07
-6.29404e-07
3.8765e-07
-8.87054e-07
4.63746e-07
-1.18326e-06
5.36782e-07
-1.51612e-06
6.05989e-07
-1.88337e-06
6.70802e-07
-2.28255e-06
7.30815e-07
-2.71101e-06
7.85742e-07
-3.16597e-06
8.35385e-07
-3.64458e-06
8.79622e-07
-4.14394e-06
9.18384e-07
-4.66112e-06
9.51651e-07
-5.1932e-06
9.7944e-07
-5.73728e-06
1.0018e-06
-6.29047e-06
1.0188e-06
-6.84996e-06
1.03053e-06
-7.41296e-06
1.03711e-06
-7.97677e-06
1.03867e-06
-8.53876e-06
1.03534e-06
-9.09636e-06
1.02728e-06
-9.6471e-06
1.01465e-06
-1.01886e-05
9.97615e-07
-1.07186e-05
9.76359e-07
-1.12349e-05
9.51062e-07
-1.17353e-05
9.21912e-07
-1.2218e-05
8.89101e-07
-1.2681e-05
8.52826e-07
-1.31225e-05
8.13286e-07
-1.35409e-05
7.70681e-07
-1.39347e-05
7.25218e-07
-1.43023e-05
6.771e-07
-1.46425e-05
6.26536e-07
-1.4954e-05
5.73733e-07
-1.52358e-05
5.18902e-07
-1.54868e-05
4.62251e-07
-1.57062e-05
4.03991e-07
-1.58932e-05
3.44334e-07
-1.60471e-05
2.83491e-07
-1.61675e-05
2.21674e-07
-1.62539e-05
1.59096e-07
-1.6306e-05
9.59682e-08
-1.63236e-05
3.25041e-08
-1.63067e-05
-3.10831e-08
-1.62553e-05
-9.458e-08
-1.61696e-05
-1.57773e-07
-1.60499e-05
-2.20448e-07
-1.58965e-05
-2.82391e-07
-1.571e-05
-3.43386e-07
-1.5491e-05
-4.03221e-07
-1.52403e-05
-4.61679e-07
-1.49587e-05
-5.18546e-07
-1.46472e-05
-5.73607e-07
-1.4307e-05
-6.26649e-07
-1.39391e-05
-6.77457e-07
-1.35451e-05
-7.25818e-07
-1.31262e-05
-7.7152e-07
-1.26841e-05
-8.14353e-07
-1.22204e-05
-8.54109e-07
-1.1737e-05
-8.9058e-07
-1.12357e-05
-9.23563e-07
-1.07185e-05
-9.52859e-07
-1.01875e-05
-9.78271e-07
-9.64492e-06
-9.99607e-07
-9.09311e-06
-1.01668e-06
-8.53444e-06
-1.02932e-06
-7.9714e-06
-1.03735e-06
-7.40658e-06
-1.0406e-06
-6.84262e-06
-1.03893e-06
-6.28226e-06
-1.0322e-06
-5.7283e-06
-1.02028e-06
-5.18356e-06
-1.00306e-06
-4.65096e-06
-9.80447e-07
-4.13339e-06
-9.5238e-07
-3.63381e-06
-9.18816e-07
-3.15514e-06
-8.79743e-07
-2.70028e-06
-8.35189e-07
-2.27209e-06
-7.8523e-07
-1.87334e-06
-7.29997e-07
-1.50666e-06
-6.69695e-07
-1.17452e-06
-6.04621e-07
-8.79137e-07
-5.35191e-07
-6.22407e-07
-4.61976e-07
-4.05784e-07
-3.85757e-07
-2.30141e-07
-3.07593e-07
-9.55845e-08
-2.28923e-07
-1.20738e-09
-1.51708e-07
5.52304e-08
-7.86294e-08
7.77069e-08
-1.33472e-08
7.24419e-08
3.91577e-08
4.8487e-08
7.22081e-08
1.84246e-08
7.70866e-08
4.27923e-08
1.48753e-08
-5.76252e-08
3.41434e-08
-9.60045e-08
3.92238e-08
-7.65542e-08
1.67027e-08
-1.55286e-08
-4.32396e-08
7.47196e-08
-1.4754e-07
1.84611e-07
-3.00782e-07
3.06801e-07
-5.05641e-07
4.35721e-07
-7.63265e-07
5.67169e-07
-1.07359e-06
6.97979e-07
-1.43561e-06
8.25765e-07
-1.84756e-06
9.48732e-07
-2.3071e-06
1.06553e-06
-2.81146e-06
1.17515e-06
-3.3575e-06
1.27686e-06
-3.94185e-06
1.3701e-06
-4.56096e-06
1.45449e-06
-5.21112e-06
1.52978e-06
-5.88856e-06
1.59583e-06
-6.58946e-06
1.65255e-06
-7.30997e-06
1.69995e-06
-8.04626e-06
1.73809e-06
-8.79453e-06
1.76706e-06
-9.55102e-06
1.78702e-06
-1.0312e-05
1.79813e-06
-1.1074e-05
1.80061e-06
-1.18333e-05
1.79469e-06
-1.25867e-05
1.78061e-06
-1.33307e-05
1.75865e-06
-1.40622e-05
1.7291e-06
-1.4778e-05
1.69224e-06
-1.54754e-05
1.6484e-06
-1.61514e-05
1.59789e-06
-1.68033e-05
1.54105e-06
-1.74287e-05
1.4782e-06
-1.80251e-05
1.4097e-06
-1.85903e-05
1.33588e-06
-1.91222e-05
1.2571e-06
-1.96188e-05
1.17372e-06
-2.00784e-05
1.08609e-06
-2.04992e-05
9.94579e-07
-2.08798e-05
8.9954e-07
-2.12189e-05
8.01342e-07
-2.15153e-05
7.00349e-07
-2.17679e-05
5.96929e-07
-2.19758e-05
4.91448e-07
-2.21384e-05
3.84275e-07
-2.22551e-05
2.75778e-07
-2.23255e-05
1.66328e-07
-2.23493e-05
5.62942e-08
-2.23264e-05
-5.39527e-08
-2.22569e-05
-1.64041e-07
-2.21411e-05
-2.736e-07
-2.19793e-05
-3.82258e-07
-2.17721e-05
-4.89641e-07
-2.15201e-05
-5.95377e-07
-2.12242e-05
-6.99093e-07
-2.08855e-05
-8.00417e-07
-2.0505e-05
-8.98975e-07
-2.00842e-05
-9.94396e-07
-1.96246e-05
-1.08631e-06
-1.91277e-05
-1.17434e-06
-1.85954e-05
-1.25813e-06
-1.80296e-05
-1.3373e-06
-1.74324e-05
-1.4115e-06
-1.68062e-05
-1.48036e-06
-1.61532e-05
-1.54354e-06
-1.54761e-05
-1.60067e-06
-1.47776e-05
-1.65142e-06
-1.40604e-05
-1.69545e-06
-1.33276e-05
-1.73243e-06
-1.25822e-05
-1.76206e-06
-1.18275e-05
-1.78403e-06
-1.10668e-05
-1.79805e-06
-1.03035e-05
-1.80385e-06
-9.5413e-06
-1.80118e-06
-8.7837e-06
-1.78981e-06
-8.03444e-06
-1.76953e-06
-7.29731e-06
-1.74019e-06
-6.57613e-06
-1.70163e-06
-5.87474e-06
-1.65376e-06
-5.19701e-06
-1.59655e-06
-4.54677e-06
-1.52999e-06
-3.92779e-06
-1.45416e-06
-3.34378e-06
-1.36924e-06
-2.79828e-06
-1.27549e-06
-2.29467e-06
-1.17331e-06
-1.83603e-06
-1.06325e-06
-1.42514e-06
-9.46082e-07
-1.0643e-06
-8.22818e-07
-7.55233e-07
-6.94825e-07
-4.98913e-07
-5.63912e-07
-2.9536e-07
-4.32476e-07
-1.43377e-07
-3.03692e-07
-4.02396e-08
-1.81767e-07
1.868e-08
-7.22671e-08
4.03617e-08
1.74758e-08
3.46589e-08
7.79106e-08
1.50078e-08
9.67377e-08
5.77998e-08
8.21256e-09
-6.58381e-08
1.00126e-08
-9.78047e-08
-1.21635e-08
-5.4378e-08
-7.14491e-08
4.37571e-08
-1.77651e-07
1.80922e-07
-3.37839e-07
3.44799e-07
-5.5678e-07
5.25742e-07
-8.37317e-07
7.16258e-07
-1.18069e-06
9.10546e-07
-1.58684e-06
1.10413e-06
-2.05462e-06
1.29355e-06
-2.58204e-06
1.47615e-06
-3.16642e-06
1.64991e-06
-3.80452e-06
1.81325e-06
-4.49268e-06
1.96503e-06
-5.22694e-06
2.10435e-06
-6.00305e-06
2.2306e-06
-6.81662e-06
2.34335e-06
-7.66309e-06
2.44231e-06
-8.53788e-06
2.52733e-06
-9.43632e-06
2.59839e-06
-1.03538e-05
2.65553e-06
-1.12856e-05
2.69888e-06
-1.22272e-05
2.72864e-06
-1.31741e-05
2.74504e-06
-1.41219e-05
2.74838e-06
-1.50662e-05
2.739e-06
-1.60028e-05
2.71726e-06
-1.69277e-05
2.68356e-06
-1.7837e-05
2.63833e-06
-1.87267e-05
2.582e-06
-1.95934e-05
2.51505e-06
-2.04335e-05
2.43796e-06
-2.12436e-05
2.35121e-06
-2.20207e-05
2.25532e-06
-2.27618e-05
2.15081e-06
-2.34642e-05
2.0382e-06
-2.41251e-05
1.91802e-06
-2.47422e-05
1.79082e-06
-2.53132e-05
1.65713e-06
-2.58361e-05
1.51751e-06
-2.63091e-05
1.37251e-06
-2.67305e-05
1.22268e-06
-2.70987e-05
1.06859e-06
-2.74126e-05
9.10787e-07
-2.76709e-05
7.49835e-07
-2.7873e-05
5.86299e-07
-2.80179e-05
4.20741e-07
-2.81053e-05
2.53726e-07
-2.81349e-05
8.58205e-08
-2.81064e-05
-8.24092e-08
-2.802e-05
-2.50396e-07
-2.78761e-05
-4.1757e-07
-2.7675e-05
-5.83365e-07
-2.74174e-05
-7.47211e-07
-2.71042e-05
-9.08538e-07
-2.67366e-05
-1.06678e-06
-2.63156e-05
-1.22136e-06
-2.58429e-05
-1.37172e-06
-2.532e-05
-1.51728e-06
-2.47488e-05
-1.65748e-06
-2.41314e-05
-1.79177e-06
-2.347e-05
-1.91957e-06
-2.27669e-05
-2.04033e-06
-2.20249e-05
-2.1535e-06
-2.12468e-05
-2.25854e-06
-2.04354e-05
-2.3549e-06
-1.9594e-05
-2.44207e-06
-1.87259e-05
-2.51952e-06
-1.78346e-05
-2.58674e-06
-1.69238e-05
-2.64326e-06
-1.59972e-05
-2.6886e-06
-1.5059e-05
-2.72231e-06
-1.4113e-05
-2.74396e-06
-1.31637e-05
-2.75316e-06
-1.22154e-05
-2.74953e-06
-1.12724e-05
-2.73275e-06
-1.03394e-05
-2.70253e-06
-9.42099e-06
-2.65863e-06
-8.52176e-06
-2.60087e-06
-7.6464e-06
-2.52913e-06
-6.79958e-06
-2.44337e-06
-5.98591e-06
-2.34365e-06
-5.20995e-06
-2.23013e-06
-4.47609e-06
-2.1031e-06
-3.78857e-06
-1.96302e-06
-3.15133e-06
-1.81054e-06
-2.56803e-06
-1.64656e-06
-2.04186e-06
-1.47225e-06
-1.57547e-06
-1.28921e-06
-1.17082e-06
-1.09948e-06
-8.28999e-07
-9.05734e-07
-5.50025e-07
-7.1145e-07
-3.32601e-07
-5.21117e-07
-1.73829e-07
-3.40539e-07
-6.8888e-08
-1.77208e-07
-1.06584e-08
-4.0754e-08
1.07131e-08
5.6539e-08
8.39889e-09
9.90513e-08
6.61987e-08
-3.07232e-10
-6.55308e-08
-2.04711e-08
-7.76408e-08
-7.60019e-08
1.15281e-09
-1.78944e-07
1.46699e-07
-3.38481e-07
3.4046e-07
-5.61333e-07
5.67651e-07
-8.52078e-07
8.16487e-07
-1.21344e-06
1.07762e-06
-1.64658e-06
1.34368e-06
-2.15128e-06
1.60883e-06
-2.72624e-06
1.86851e-06
-3.3692e-06
2.11912e-06
-4.07718e-06
2.35788e-06
-4.84653e-06
2.58261e-06
-5.67314e-06
2.79164e-06
-6.55252e-06
2.98372e-06
-7.47984e-06
3.15793e-06
-8.45008e-06
3.31359e-06
-9.45805e-06
3.45027e-06
-1.04984e-05
3.56773e-06
-1.15659e-05
3.66586e-06
-1.26551e-05
3.74469e-06
-1.37606e-05
3.80437e-06
-1.48771e-05
3.84514e-06
-1.59993e-05
3.8673e-06
-1.71222e-05
3.87125e-06
-1.82406e-05
3.85743e-06
-1.93497e-05
3.82634e-06
-2.04447e-05
3.77851e-06
-2.15209e-05
3.71453e-06
-2.25739e-05
3.63501e-06
-2.35994e-05
3.54059e-06
-2.45934e-05
3.43194e-06
-2.55519e-05
3.30974e-06
-2.64713e-05
3.1747e-06
-2.7348e-05
3.02754e-06
-2.81788e-05
2.869e-06
-2.89606e-05
2.69982e-06
-2.96906e-05
2.52076e-06
-3.0366e-05
2.33257e-06
-3.09845e-05
2.13604e-06
-3.1544e-05
1.93194e-06
-3.20423e-05
1.72103e-06
-3.24778e-05
1.50412e-06
-3.2849e-05
1.28199e-06
-3.31546e-05
1.05543e-06
-3.33936e-05
8.2522e-07
-3.3565e-05
5.92168e-07
-3.36683e-05
3.57065e-07
-3.37032e-05
1.20708e-07
-3.36695e-05
-1.16103e-07
-3.35673e-05
-3.5257e-07
-3.3397e-05
-5.87891e-07
-3.31591e-05
-8.21266e-07
-3.28544e-05
-1.05189e-06
-3.2484e-05
-1.27897e-06
-3.20491e-05
-1.5017e-06
-3.15512e-05
-1.71927e-06
-3.0992e-05
-1.93089e-06
-3.03735e-05
-2.13576e-06
-2.96979e-05
-2.33309e-06
-2.89676e-05
-2.52209e-06
-2.81852e-05
-2.70196e-06
-2.73536e-05
-2.87194e-06
-2.64758e-05
-3.03124e-06
-2.55553e-05
-3.17911e-06
-2.45954e-05
-3.3148e-06
-2.35999e-05
-3.43757e-06
-2.25727e-05
-3.5467e-06
-2.15179e-05
-3.6415e-06
-2.04399e-05
-3.72128e-06
-1.93431e-05
-3.7854e-06
-1.82322e-05
-3.83324e-06
-1.71119e-05
-3.86421e-06
-1.59873e-05
-3.87778e-06
-1.48634e-05
-3.87344e-06
-1.37454e-05
-3.85076e-06
-1.26386e-05
-3.80936e-06
-1.15483e-05
-3.74893e-06
-1.04799e-05
-3.66925e-06
-9.43883e-06
-3.57019e-06
-8.43046e-06
-3.45173e-06
-7.4601e-06
-3.31401e-06
-6.53293e-06
-3.15729e-06
-5.654e-06
-2.98203e-06
-4.8281e-06
-2.78892e-06
-4.05973e-06
-2.57892e-06
-3.35296e-06
-2.35332e-06
-2.71141e-06
-2.11381e-06
-2.13803e-06
-1.86259e-06
-1.63503e-06
-1.60248e-06
-1.20367e-06
-1.33709e-06
-8.44096e-07
-1.07102e-06
-5.55102e-07
-8.10111e-07
-3.33897e-07
-5.61743e-07
-1.75843e-07
-3.35263e-07
-7.4159e-08
-1.42438e-07
-1.96026e-08
1.98228e-09
-7.26716e-11
7.95214e-08
6.61257e-08
-9.83031e-09
-5.57006e-08
-5.47168e-08
-3.27544e-08
-1.47625e-07
9.40615e-08
-2.98994e-07
2.98067e-07
-5.16941e-07
5.58407e-07
-8.07466e-07
8.58176e-07
-1.17465e-06
1.18367e-06
-1.62087e-06
1.52384e-06
-2.14697e-06
1.86979e-06
-2.75252e-06
2.21438e-06
-3.43594e-06
2.55192e-06
-4.19468e-06
2.87787e-06
-5.02542e-06
3.18862e-06
-5.92416e-06
3.48134e-06
-6.88635e-06
3.75383e-06
-7.90701e-06
4.00439e-06
-8.98084e-06
4.23175e-06
-1.01022e-05
4.43499e-06
-1.12654e-05
4.61347e-06
-1.24645e-05
4.76681e-06
-1.36935e-05
4.89484e-06
-1.49463e-05
4.99755e-06
-1.62171e-05
5.07508e-06
-1.74996e-05
5.12772e-06
-1.87882e-05
5.15584e-06
-2.00768e-05
5.15993e-06
-2.136e-05
5.14055e-06
-2.2632e-05
5.09833e-06
-2.38874e-05
5.03398e-06
-2.51211e-05
4.94824e-06
-2.6328e-05
4.8419e-06
-2.75032e-05
4.71581e-06
-2.86421e-05
4.57084e-06
-2.97403e-05
4.4079e-06
-3.07935e-05
4.2279e-06
-3.17978e-05
4.03181e-06
-3.27494e-05
3.82059e-06
-3.36448e-05
3.59523e-06
-3.44807e-05
3.35673e-06
-3.52543e-05
3.1061e-06
-3.59626e-05
2.84436e-06
-3.66032e-05
2.57255e-06
-3.71739e-05
2.29169e-06
-3.76726e-05
2.00284e-06
-3.80976e-05
1.70703e-06
-3.84475e-05
1.40532e-06
-3.87211e-05
1.09877e-06
-3.89173e-05
7.88432e-07
-3.90356e-05
4.75362e-07
-3.90755e-05
1.60625e-07
-3.90369e-05
-1.54715e-07
-3.89199e-05
-4.69594e-07
-3.87248e-05
-7.82946e-07
-3.84524e-05
-1.0937e-06
-3.81035e-05
-1.4008e-06
-3.76793e-05
-1.70317e-06
-3.71813e-05
-1.99974e-06
-3.66111e-05
-2.28945e-06
-3.59707e-05
-2.57124e-06
-3.52625e-05
-2.84404e-06
-3.44887e-05
-3.10681e-06
-3.36523e-05
-3.35849e-06
-3.27563e-05
-3.59804e-06
-3.18038e-05
-3.82442e-06
-3.07984e-05
-4.03663e-06
-2.97439e-05
-4.23364e-06
-2.86442e-05
-4.41448e-06
-2.75036e-05
-4.57816e-06
-2.63266e-05
-4.72374e-06
-2.51177e-05
-4.85032e-06
-2.3882e-05
-4.95699e-06
-2.26245e-05
-5.04291e-06
-2.13505e-05
-5.10728e-06
-2.00654e-05
-5.14934e-06
-1.87747e-05
-5.16839e-06
-1.74844e-05
-5.1638e-06
-1.62001e-05
-5.13501e-06
-1.49279e-05
-5.08155e-06
-1.36738e-05
-5.00305e-06
-1.24438e-05
-4.89924e-06
-1.1244e-05
-4.77001e-06
-1.00804e-05
-4.61538e-06
-8.9588e-06
-4.43556e-06
-7.88514e-06
-4.23095e-06
-6.86494e-06
-4.00223e-06
-5.90353e-06
-3.75034e-06
-5.00585e-06
-3.4766e-06
-4.17643e-06
-3.18274e-06
-3.41924e-06
-2.871e-06
-2.73756e-06
-2.54426e-06
-2.13389e-06
-2.20614e-06
-1.60976e-06
-1.86123e-06
-1.16554e-06
-1.51524e-06
-8.00322e-07
-1.17533e-06
-5.11658e-07
-8.50407e-07
-2.95399e-07
-5.51522e-07
-1.45475e-07
-2.92362e-07
-5.36967e-08
-8.97963e-08
-9.5532e-09
3.53773e-08
5.65726e-08
-1.98213e-08
-3.58792e-08
-9.09824e-08
3.84068e-08
-2.23753e-07
2.26832e-07
-4.26678e-07
5.00993e-07
-7.06514e-07
8.38242e-07
-1.06827e-06
1.21993e-06
-1.51528e-06
1.63068e-06
-2.04936e-06
2.05792e-06
-2.67093e-06
2.49135e-06
-3.37915e-06
2.9226e-06
-4.17209e-06
3.34486e-06
-5.04686e-06
3.75265e-06
-5.99979e-06
4.14154e-06
-7.02648e-06
4.50803e-06
-8.12198e-06
4.84933e-06
-9.28088e-06
5.16329e-06
-1.04974e-05
5.44825e-06
-1.17654e-05
5.703e-06
-1.30786e-05
5.9267e-06
-1.44306e-05
6.11879e-06
-1.58148e-05
6.27901e-06
-1.72245e-05
6.40731e-06
-1.86533e-05
6.50381e-06
-2.00944e-05
6.56884e-06
-2.15414e-05
6.60284e-06
-2.29878e-05
6.60639e-06
-2.44275e-05
6.58018e-06
-2.58541e-05
6.52498e-06
-2.72618e-05
6.44166e-06
-2.86447e-05
6.33115e-06
-2.99973e-05
6.19446e-06
-3.13141e-05
6.03262e-06
-3.259e-05
5.84675e-06
-3.38201e-05
5.63798e-06
-3.49996e-05
5.40748e-06
-3.61243e-05
5.15645e-06
-3.71898e-05
4.88614e-06
-3.81924e-05
4.59779e-06
-3.91283e-05
4.29267e-06
-3.99943e-05
3.97207e-06
-4.07872e-05
3.63729e-06
-4.15043e-05
3.28964e-06
-4.21431e-05
2.93045e-06
-4.27013e-05
2.56105e-06
-4.3177e-05
2.18276e-06
-4.35686e-05
1.79694e-06
-4.38748e-05
1.40493e-06
-4.40944e-05
1.00808e-06
-4.42268e-05
6.07742e-07
-4.42715e-05
2.05278e-07
-4.42282e-05
-1.97955e-07
-4.40972e-05
-6.00595e-07
-4.38789e-05
-1.00128e-06
-4.35739e-05
-1.39865e-06
-4.31834e-05
-1.79134e-06
-4.27086e-05
-2.17798e-06
-4.21511e-05
-2.55722e-06
-4.15129e-05
-2.92769e-06
-4.07961e-05
-3.28804e-06
-4.00032e-05
-3.63692e-06
-3.9137e-05
-3.97298e-06
-3.82006e-05
-4.29489e-06
-3.71973e-05
-4.60131e-06
-3.61308e-05
-4.89094e-06
-3.5005e-05
-5.16248e-06
-3.3824e-05
-5.41465e-06
-3.25922e-05
-5.64619e-06
-3.13145e-05
-5.85588e-06
-2.99957e-05
-6.04253e-06
-2.86411e-05
-6.20496e-06
-2.7256e-05
-6.34208e-06
-2.58461e-05
-6.45281e-06
-2.44172e-05
-6.53615e-06
-2.29754e-05
-6.59115e-06
-2.15269e-05
-6.61696e-06
-2.00779e-05
-6.61279e-06
-1.86349e-05
-6.57796e-06
-1.72046e-05
-6.51191e-06
-1.57934e-05
-6.4142e-06
-1.44081e-05
-6.28454e-06
-1.30553e-05
-6.12283e-06
-1.17416e-05
-5.92913e-06
-1.04733e-05
-5.70376e-06
-9.25699e-06
-5.4473e-06
-8.09858e-06
-5.16064e-06
-7.00389e-06
-4.84503e-06
-5.97832e-06
-4.50217e-06
-5.02681e-06
-4.13425e-06
-4.15369e-06
-3.74412e-06
-3.36263e-06
-3.33532e-06
-2.65645e-06
-2.91232e-06
-2.03703e-06
-2.48065e-06
-1.50514e-06
-2.04714e-06
-1.06028e-06
-1.62019e-06
-7.0059e-07
-1.2101e-06
-4.22631e-07
-8.2948e-07
-2.21324e-07
-4.9367e-07
-8.98259e-08
-2.21294e-07
-1.9506e-08
-3.49423e-08
3.70663e-08
-2.99516e-08
-5.92768e-09
-1.2812e-07
1.36575e-07
-3.02122e-07
4.00835e-07
-5.58491e-07
7.57361e-07
-9.02443e-07
1.18219e-06
-1.3378e-06
1.65529e-06
-1.86699e-06
2.15988e-06
-2.4911e-06
2.68203e-06
-3.20994e-06
3.2102e-06
-4.02219e-06
3.73484e-06
-4.92546e-06
4.24814e-06
-5.91648e-06
4.74366e-06
-6.99114e-06
5.2162e-06
-8.14467e-06
5.66155e-06
-9.37169e-06
6.07635e-06
-1.06663e-05
6.45795e-06
-1.20224e-05
6.80431e-06
-1.34333e-05
7.11391e-06
-1.48923e-05
7.38566e-06
-1.63923e-05
7.61885e-06
-1.79264e-05
7.81308e-06
-1.94873e-05
7.96824e-06
-2.1068e-05
8.08447e-06
-2.26612e-05
8.16209e-06
-2.426e-05
8.20162e-06
-2.58574e-05
8.20374e-06
-2.74465e-05
8.16926e-06
-2.90206e-05
8.09911e-06
-3.05733e-05
7.99434e-06
-3.20982e-05
7.85607e-06
-3.35892e-05
7.6855e-06
-3.50405e-05
7.48393e-06
-3.64465e-05
7.2527e-06
-3.78017e-05
6.99319e-06
-3.91011e-05
6.70684e-06
-4.03398e-05
6.39514e-06
-4.15132e-05
6.0596e-06
-4.26172e-05
5.70176e-06
-4.36477e-05
5.32319e-06
-4.46011e-05
4.92547e-06
-4.54741e-05
4.51022e-06
-4.62635e-05
4.07904e-06
-4.69666e-05
3.63358e-06
-4.7581e-05
3.17547e-06
-4.81046e-05
2.70638e-06
-4.85357e-05
2.22796e-06
-4.88726e-05
1.74188e-06
-4.91143e-05
1.24981e-06
-4.926e-05
7.53426e-07
-4.93092e-05
2.5441e-07
-4.92616e-05
-2.45556e-07
-4.91174e-05
-7.44786e-07
-4.88771e-05
-1.24159e-06
-4.85414e-05
-1.73429e-06
-4.81116e-05
-2.22119e-06
-4.75889e-05
-2.70061e-06
-4.69753e-05
-3.17085e-06
-4.62727e-05
-3.63025e-06
-4.54837e-05
-4.07711e-06
-4.46108e-05
-4.50978e-06
-4.36572e-05
-4.92659e-06
-4.26262e-05
-5.32589e-06
-4.15215e-05
-5.70604e-06
-4.0347e-05
-6.06542e-06
-3.9107e-05
-6.40245e-06
-3.78061e-05
-6.71553e-06
-3.64492e-05
-7.00314e-06
-3.50413e-05
-7.26376e-06
-3.35879e-05
-7.49594e-06
-3.20946e-05
-7.69824e-06
-3.05674e-05
-7.86932e-06
-2.90123e-05
-8.00787e-06
-2.74358e-05
-8.11267e-06
-2.58444e-05
-8.18259e-06
-2.42447e-05
-8.21658e-06
-2.26438e-05
-8.21371e-06
-2.10486e-05
-8.17319e-06
-1.94662e-05
-8.09433e-06
-1.79037e-05
-7.97666e-06
-1.63684e-05
-7.81985e-06
-1.48674e-05
-7.62382e-06
-1.34078e-05
-7.3887e-06
-1.19967e-05
-7.11492e-06
-1.06407e-05
-6.80326e-06
-9.34653e-06
-6.45483e-06
-8.12034e-06
-6.07122e-06
-6.96799e-06
-5.65452e-06
-5.8948e-06
-5.20744e-06
-4.90554e-06
-4.73338e-06
-4.00426e-06
-4.23661e-06
-3.19419e-06
-3.72239e-06
-2.47765e-06
-3.19719e-06
-1.8559e-06
-2.66888e-06
-1.32905e-06
-2.14704e-06
-8.95929e-07
-1.64322e-06
-5.54029e-07
-1.17138e-06
-2.99437e-07
-7.48262e-07
-1.26839e-07
-3.93892e-07
-2.96019e-08
-1.3218e-07
7.46452e-09
-4.0023e-08
3.40955e-08
-1.65388e-07
2.6194e-07
-3.81202e-07
6.16649e-07
-6.91979e-07
1.06814e-06
-1.10132e-06
1.59153e-06
-1.61173e-06
2.1657e-06
-2.2246e-06
2.77275e-06
-2.94016e-06
3.39758e-06
-3.75751e-06
4.02755e-06
-4.67472e-06
4.65206e-06
-5.6889e-06
5.26231e-06
-6.79627e-06
5.85103e-06
-7.99229e-06
6.41222e-06
-9.27174e-06
6.941e-06
-1.06288e-05
7.43344e-06
-1.20573e-05
7.88639e-06
-1.35504e-05
8.29742e-06
-1.51011e-05
8.66468e-06
-1.67023e-05
8.98683e-06
-1.83464e-05
9.26298e-06
-2.0026e-05
9.49261e-06
-2.17333e-05
9.67555e-06
-2.34607e-05
9.81189e-06
-2.52006e-05
9.90201e-06
-2.69455e-05
9.94648e-06
-2.86878e-05
9.94608e-06
-3.04203e-05
9.90174e-06
-3.21357e-05
9.81457e-06
-3.38272e-05
9.68578e-06
-3.54878e-05
9.51671e-06
-3.71111e-05
9.30879e-06
-3.86907e-05
9.06355e-06
-4.02206e-05
8.78259e-06
-4.1695e-05
8.46758e-06
-4.31084e-05
8.12023e-06
-4.44556e-05
7.74231e-06
-4.57316e-05
7.33566e-06
-4.6932e-05
6.90211e-06
-4.80523e-05
6.44355e-06
-4.90887e-05
5.96189e-06
-5.00376e-05
5.45907e-06
-5.08956e-05
4.93703e-06
-5.16598e-05
4.39775e-06
-5.23275e-05
3.84321e-06
-5.28965e-05
3.27541e-06
-5.33649e-05
2.69634e-06
-5.3731e-05
2.10803e-06
-5.39937e-05
1.51248e-06
-5.4152e-05
9.11728e-07
-5.42054e-05
3.07798e-07
-5.41537e-05
-2.97277e-07
-5.3997e-05
-9.01461e-07
-5.37359e-05
-1.50272e-06
-5.33712e-05
-2.09901e-06
-5.29041e-05
-2.68829e-06
-5.23362e-05
-3.26853e-06
-5.16693e-05
-3.83771e-06
-5.09058e-05
-4.39377e-06
-5.00482e-05
-4.93472e-06
-4.90994e-05
-5.45852e-06
-4.80628e-05
-5.96318e-06
-4.6942e-05
-6.44671e-06
-4.57409e-05
-6.90714e-06
-4.44638e-05
-7.34253e-06
-4.31153e-05
-7.75095e-06
-4.17003e-05
-8.13051e-06
-4.02241e-05
-8.47936e-06
-3.86922e-05
-8.7957e-06
-3.71103e-05
-9.07778e-06
-3.54847e-05
-9.3239e-06
-3.38216e-05
-9.53243e-06
-3.21276e-05
-9.70184e-06
-3.04096e-05
-9.83068e-06
-2.86746e-05
-9.91759e-06
-2.69298e-05
-9.96136e-06
-2.51826e-05
-9.96089e-06
-2.34406e-05
-9.91525e-06
-2.17112e-05
-9.82368e-06
-2.00022e-05
-9.68563e-06
-1.83213e-05
-9.50076e-06
-1.66762e-05
-9.26899e-06
-1.50743e-05
-8.99056e-06
-1.35232e-05
-8.66601e-06
-1.20302e-05
-8.2963e-06
-1.06022e-05
-7.88282e-06
-9.24591e-06
-7.42749e-06
-7.96765e-06
-6.93279e-06
-6.77315e-06
-6.40193e-06
-5.66761e-06
-5.83892e-06
-4.65552e-06
-5.24869e-06
-3.7406e-06
-4.63731e-06
-2.92569e-06
-4.0121e-06
-2.21264e-06
-3.38193e-06
-1.60227e-06
-2.75741e-06
-1.09426e-06
-2.15123e-06
-6.87135e-07
-1.5785e-06
-3.78281e-07
-1.05712e-06
-1.63992e-07
-6.08181e-07
-3.96415e-08
-2.5653e-07
-3.21772e-08
-4.99206e-08
8.4016e-08
-2.02318e-07
4.14337e-07
-4.59984e-07
8.74315e-07
-8.25471e-07
1.43362e-06
-1.30074e-06
2.0668e-06
-1.88694e-06
2.7519e-06
-2.58432e-06
3.47013e-06
-3.39216e-06
4.20542e-06
-4.30877e-06
4.94415e-06
-5.33152e-06
5.67481e-06
-6.45692e-06
6.38771e-06
-7.68064e-06
7.07476e-06
-8.99765e-06
7.72924e-06
-1.04023e-05
8.34562e-06
-1.18882e-05
8.9194e-06
-1.34488e-05
9.44697e-06
-1.50769e-05
9.92549e-06
-1.6765e-05
1.03528e-05
-1.85055e-05
1.07273e-05
-2.02904e-05
1.10479e-05
-2.21117e-05
1.13139e-05
-2.39613e-05
1.15252e-05
-2.58312e-05
1.16818e-05
-2.77132e-05
1.1784e-05
-2.95993e-05
1.18326e-05
-3.14816e-05
1.18284e-05
-3.33523e-05
1.17724e-05
-3.52038e-05
1.1666e-05
-3.70286e-05
1.15106e-05
-3.88196e-05
1.13077e-05
-4.05697e-05
1.10589e-05
-4.22723e-05
1.07661e-05
-4.39208e-05
1.04311e-05
-4.55092e-05
1.0056e-05
-4.70316e-05
9.64257e-06
-4.84823e-05
9.19308e-06
-4.98563e-05
8.70962e-06
-5.11485e-05
8.19437e-06
-5.23545e-05
7.64954e-06
-5.34701e-05
7.0774e-06
-5.44912e-05
6.48023e-06
-5.54145e-05
5.86034e-06
-5.62368e-05
5.22004e-06
-5.69553e-05
4.56169e-06
-5.75675e-05
3.88764e-06
-5.80714e-05
3.20027e-06
-5.84654e-05
2.50195e-06
-5.8748e-05
1.79507e-06
-5.89183e-05
1.08204e-06
-5.89757e-05
3.65248e-07
-5.89201e-05
-3.52896e-07
-5.87516e-05
-1.06998e-06
-5.84707e-05
-1.7836e-06
-5.80784e-05
-2.49134e-06
-5.75759e-05
-3.19079e-06
-5.69648e-05
-3.87954e-06
-5.62474e-05
-4.55518e-06
-5.54258e-05
-5.21531e-06
-5.4503e-05
-5.85755e-06
-5.3482e-05
-6.47951e-06
-5.23664e-05
-7.07882e-06
-5.11599e-05
-7.65315e-06
-4.98669e-05
-8.20016e-06
-4.84919e-05
-8.71756e-06
-4.70398e-05
-9.20308e-06
-4.55158e-05
-9.6545e-06
-4.39255e-05
-1.00696e-05
-4.22748e-05
-1.04464e-05
-4.05699e-05
-1.07827e-05
-3.88173e-05
-1.10765e-05
-3.70237e-05
-1.1326e-05
-3.51962e-05
-1.15293e-05
-3.3342e-05
-1.16849e-05
-3.14687e-05
-1.1791e-05
-2.95837e-05
-1.18463e-05
-2.76951e-05
-1.18495e-05
-2.58108e-05
-1.17996e-05
-2.39389e-05
-1.16957e-05
-2.20874e-05
-1.15371e-05
-2.02645e-05
-1.13236e-05
-1.84785e-05
-1.10551e-05
-1.67372e-05
-1.07318e-05
-1.50487e-05
-1.03546e-05
-1.34206e-05
-9.9244e-06
-1.18604e-05
-9.44302e-06
-1.03752e-05
-8.91266e-06
-8.97174e-06
-8.33622e-06
-7.65627e-06
-7.7174e-06
-6.43442e-06
-7.06077e-06
-5.31119e-06
-6.37193e-06
-4.29082e-06
-5.65767e-06
-3.37677e-06
-4.92616e-06
-2.57157e-06
-4.18713e-06
-1.87683e-06
-3.45215e-06
-1.29318e-06
-2.73488e-06
-8.20273e-07
-2.05141e-06
-4.56844e-07
-1.42054e-06
-2.00815e-07
-8.64209e-07
-4.95095e-08
-4.07837e-07
-8.16866e-08
-5.95814e-08
1.43598e-07
-2.3863e-07
5.93386e-07
-5.37825e-07
1.17351e-06
-9.5786e-07
1.85366e-06
-1.49908e-06
2.60802e-06
-2.16127e-06
3.41409e-06
-2.94347e-06
4.25233e-06
-3.84396e-06
5.10591e-06
-4.86017e-06
5.96036e-06
-5.98872e-06
6.80336e-06
-7.22544e-06
7.62443e-06
-8.56542e-06
8.41474e-06
-1.00031e-05
9.16689e-06
-1.15322e-05
9.87474e-06
-1.3146e-05
1.05333e-05
-1.48375e-05
1.11384e-05
-1.65988e-05
1.16869e-05
-1.84223e-05
1.21762e-05
-2.02996e-05
1.26046e-05
-2.22226e-05
1.29708e-05
-2.41826e-05
1.3274e-05
-2.61713e-05
1.35139e-05
-2.818e-05
1.36905e-05
-3.02002e-05
1.38042e-05
-3.22235e-05
1.38559e-05
-3.42415e-05
1.38464e-05
-3.6246e-05
1.3777e-05
-3.8229e-05
1.3649e-05
-4.01826e-05
1.34642e-05
-4.20992e-05
1.32243e-05
-4.39715e-05
1.29312e-05
-4.57924e-05
1.2587e-05
-4.7555e-05
1.21937e-05
-4.92528e-05
1.17538e-05
-5.08797e-05
1.12695e-05
-5.24298e-05
1.07432e-05
-5.38976e-05
1.01774e-05
-5.52779e-05
9.57465e-06
-5.65658e-05
8.9375e-06
-5.7757e-05
8.26858e-06
-5.88473e-05
7.57054e-06
-5.98331e-05
6.84606e-06
-6.07109e-05
6.09785e-06
-6.14778e-05
5.32862e-06
-6.21313e-05
4.54113e-06
-6.26692e-05
3.73813e-06
-6.30896e-05
2.92239e-06
-6.33912e-05
2.0967e-06
-6.3573e-05
1.26383e-06
-6.36344e-05
4.26597e-07
-6.35751e-05
-4.12212e-07
-6.33953e-05
-1.24979e-06
-6.30955e-05
-2.08333e-06
-6.26769e-05
-2.91002e-06
-6.21406e-05
-3.72705e-06
-6.14885e-05
-4.53164e-06
-6.07227e-05
-5.32096e-06
-5.98458e-05
-6.09224e-06
-5.88606e-05
-6.84269e-06
-5.77706e-05
-7.56954e-06
-5.65794e-05
-8.27005e-06