/*--------------------------------*- C++ -*----------------------------------*\
| =========                 |                                                 |
| \\      /  F ield         | OpenFOAM: The Open Source CFD Toolbox           |
|  \\    /   O peration     | Version:  v2012                                 |
|   \\  /    A nd           | Website:  www.openfoam.com                      |
|    \\/     M anipulation  |                                                 |
\*---------------------------------------------------------------------------*/
FoamFile
{
    version     2.0;
    format      ascii;
    class       volVectorField;
    location    "1554";
    object      U;
}
// * * * * * * * * * * * * * * * * * * * * * * * * * * * * * * * * * * * * * //

dimensions      [0 1 -1 0 0 0 0];


internalField   nonuniform List<vector> 
10000
(
(2.22923e-06 -2.25813e-06 0)
(1.54127e-05 -4.61755e-06 0)
(3.379e-05 -5.25459e-06 0)
(5.12173e-05 -4.71312e-06 0)
(6.2991e-05 -3.57837e-06 0)
(6.66158e-05 -2.14151e-06 0)
(6.07166e-05 -5.82482e-07 0)
(4.46149e-05 9.94876e-07 0)
(1.80976e-05 2.5339e-06 0)
(-1.87413e-05 4.00384e-06 0)
(-6.56036e-05 5.38815e-06 0)
(-0.000122054 6.67819e-06 0)
(-0.000187563 7.86979e-06 0)
(-0.000261538 8.9614e-06 0)
(-0.000343344 9.95301e-06 0)
(-0.000432317 1.08455e-05 0)
(-0.000527776 1.16405e-05 0)
(-0.000629032 1.23397e-05 0)
(-0.000735393 1.29455e-05 0)
(-0.00084617 1.34601e-05 0)
(-0.000960677 1.3886e-05 0)
(-0.00107824 1.42259e-05 0)
(-0.0011982 1.44823e-05 0)
(-0.0013199 1.46581e-05 0)
(-0.00144272 1.4756e-05 0)
(-0.00156602 1.47788e-05 0)
(-0.00168923 1.47295e-05 0)
(-0.00181176 1.46109e-05 0)
(-0.00193305 1.4426e-05 0)
(-0.00205257 1.41777e-05 0)
(-0.0021698 1.38689e-05 0)
(-0.00228425 1.35027e-05 0)
(-0.00239544 1.3082e-05 0)
(-0.00250295 1.26098e-05 0)
(-0.00260634 1.20891e-05 0)
(-0.00270521 1.15228e-05 0)
(-0.0027992 1.0914e-05 0)
(-0.00288795 1.02655e-05 0)
(-0.00297113 9.58047e-06 0)
(-0.00304846 8.86172e-06 0)
(-0.00311964 8.1122e-06 0)
(-0.00318444 7.33487e-06 0)
(-0.00324262 6.53263e-06 0)
(-0.00329398 5.7084e-06 0)
(-0.00333835 4.86507e-06 0)
(-0.00337558 4.00556e-06 0)
(-0.00340553 3.13273e-06 0)
(-0.00342811 2.24949e-06 0)
(-0.00344324 1.35871e-06 0)
(-0.00345087 4.63294e-07 0)
(-0.00345097 -4.33888e-07 0)
(-0.00344353 -1.32993e-06 0)
(-0.00342859 -2.22195e-06 0)
(-0.00340618 -3.10703e-06 0)
(-0.00337638 -3.98225e-06 0)
(-0.0033393 -4.84469e-06 0)
(-0.00329505 -5.6914e-06 0)
(-0.00324378 -6.51943e-06 0)
(-0.00318567 -7.32581e-06 0)
(-0.00312091 -8.10755e-06 0)
(-0.00304973 -8.86166e-06 0)
(-0.00297238 -9.58512e-06 0)
(-0.00288914 -1.02749e-05 0)
(-0.0028003 -1.0928e-05 0)
(-0.00270619 -1.15413e-05 0)
(-0.00260717 -1.21118e-05 0)
(-0.0025036 -1.26363e-05 0)
(-0.00239589 -1.3112e-05 0)
(-0.00228447 -1.35357e-05 0)
(-0.00216978 -1.39043e-05 0)
(-0.0020523 -1.42148e-05 0)
(-0.00193252 -1.44641e-05 0)
(-0.00181096 -1.46494e-05 0)
(-0.00168817 -1.47675e-05 0)
(-0.0015647 -1.48156e-05 0)
(-0.00144114 -1.47908e-05 0)
(-0.0013181 -1.46902e-05 0)
(-0.00119619 -1.45109e-05 0)
(-0.00107605 -1.42503e-05 0)
(-0.000958335 -1.39057e-05 0)
(-0.000843712 -1.34745e-05 0)
(-0.000732858 -1.29541e-05 0)
(-0.000626459 -1.23423e-05 0)
(-0.000525207 -1.16368e-05 0)
(-0.000429794 -1.08356e-05 0)
(-0.000340909 -9.93696e-06 0)
(-0.000259231 -8.9395e-06 0)
(-0.00018542 -7.84253e-06 0)
(-0.000120109 -6.64625e-06 0)
(-6.38833e-05 -5.35246e-06 0)
(-1.72665e-05 -3.96553e-06 0)
(1.93145e-05 -2.49437e-06 0)
(4.55711e-05 -9.558e-07 0)
(6.142e-05 6.19116e-07 0)
(6.70862e-05 2.17334e-06 0)
(6.32609e-05 3.60266e-06 0)
(5.13317e-05 4.72712e-06 0)
(3.38068e-05 5.256e-06 0)
(1.54021e-05 4.60183e-06 0)
(2.22728e-06 2.22691e-06 0)
(4.60447e-06 -1.54496e-05 0)
(3.10812e-05 -3.10814e-05 0)
(6.32029e-05 -3.34716e-05 0)
(8.95557e-05 -2.61543e-05 0)
(0.000100736 -1.2591e-05 0)
(9.10676e-05 4.72658e-06 0)
(5.70444e-05 2.41057e-05 0)
(-3.31286e-06 4.4414e-05 0)
(-9.08643e-05 6.48938e-05 0)
(-0.000205663 8.50344e-05 0)
(-0.000347184 0.000104488 0)
(-0.000514483 0.000123017 0)
(-0.000706316 0.000140456 0)
(-0.00092122 0.000156692 0)
(-0.00115758 0.000171648 0)
(-0.00141366 0.000185277 0)
(-0.00168767 0.000197547 0)
(-0.00197776 0.000208444 0)
(-0.00228204 0.000217965 0)
(-0.00259864 0.000226117 0)
(-0.00292567 0.000232913 0)
(-0.00326125 0.000238373 0)
(-0.00360356 0.000242521 0)
(-0.00395077 0.000245386 0)
(-0.0043011 0.000247 0)
(-0.00465283 0.000247399 0)
(-0.00500427 0.000246619 0)
(-0.00535378 0.000244701 0)
(-0.00569979 0.000241686 0)
(-0.00604076 0.000237616 0)
(-0.00637524 0.000232536 0)
(-0.00670182 0.000226491 0)
(-0.00701917 0.000219529 0)
(-0.00732601 0.000211694 0)
(-0.00762114 0.000203037 0)
(-0.00790341 0.000193603 0)
(-0.00817176 0.000183444 0)
(-0.00842518 0.000172606 0)
(-0.00866274 0.000161139 0)
(-0.00888358 0.000149094 0)
(-0.0090869 0.000136519 0)
(-0.00927199 0.000123465 0)
(-0.00943819 0.000109981 0)
(-0.00958492 9.61163e-05 0)
(-0.00971168 8.19219e-05 0)
(-0.00981802 6.74475e-05 0)
(-0.00990359 5.27431e-05 0)
(-0.00996809 3.78588e-05 0)
(-0.0100113 2.28447e-05 0)
(-0.0100331 7.75089e-06 0)
(-0.0100333 -7.37232e-06 0)
(-0.010012 -2.24746e-05 0)
(-0.00996931 -3.75057e-05 0)
(-0.00990526 -5.2415e-05 0)
(-0.0098201 -6.7152e-05 0)
(-0.00971411 -8.16661e-05 0)
(-0.00958766 -9.59065e-05 0)
(-0.00944116 -0.000109822 0)
(-0.00927513 -0.000123363 0)
(-0.00909013 -0.000136477 0)
(-0.00888681 -0.000149114 0)
(-0.0086659 -0.000161223 0)
(-0.00842817 -0.000172752 0)
(-0.0081745 -0.000183652 0)
(-0.00790583 -0.000193872 0)
(-0.00762315 -0.000203362 0)
(-0.00732755 -0.000212071 0)
(-0.00702016 -0.00021995 0)
(-0.00670222 -0.000226952 0)
(-0.00637499 -0.000233027 0)
(-0.00603984 -0.000238128 0)
(-0.00569817 -0.00024221 0)
(-0.00535145 -0.000245228 0)
(-0.00500124 -0.000247139 0)
(-0.00464912 -0.0002479 0)
(-0.00429673 -0.000247473 0)
(-0.00394579 -0.00024582 0)
(-0.00359803 -0.000242906 0)
(-0.00325525 -0.000238701 0)
(-0.00291927 -0.000233176 0)
(-0.00259194 -0.000226308 0)
(-0.00227514 -0.000218079 0)
(-0.00197076 -0.000208476 0)
(-0.00168069 -0.000197496 0)
(-0.0014068 -0.000185144 0)
(-0.00115094 -0.000171435 0)
(-0.000914921 -0.000156402 0)
(-0.000700447 -0.000140098 0)
(-0.00050913 -0.0001226 0)
(-0.000342418 -0.000104024 0)
(-0.000201537 -8.45378e-05 0)
(-8.74095e-05 -6.43822e-05 0)
(-5.37378e-07 -4.39073e-05 0)
(5.91591e-05 -2.36261e-05 0)
(9.25682e-05 -4.29776e-06 0)
(0.000101698 1.29443e-05 0)
(9.00823e-05 2.64093e-05 0)
(6.34195e-05 3.36116e-05 0)
(3.11275e-05 3.11048e-05 0)
(4.59978e-06 1.53968e-05 0)
(5.26157e-06 -3.38292e-05 0)
(3.36217e-05 -6.32316e-05 0)
(6.30866e-05 -6.27986e-05 0)
(7.98935e-05 -4.09117e-05 0)
(7.24805e-05 -4.48841e-06 0)
(3.34202e-05 4.1249e-05 0)
(-4.21757e-05 9.25003e-05 0)
(-0.000157265 0.000146545 0)
(-0.000313296 0.000201443 0)
(-0.000510564 0.000255812 0)
(-0.000748491 0.000308659 0)
(-0.00102584 0.000359271 0)
(-0.00134089 0.000407135 0)
(-0.00169152 0.000451883 0)
(-0.00207538 0.000493253 0)
(-0.00248987 0.000531066 0)
(-0.00293228 0.000565202 0)
(-0.00339977 0.00059559 0)
(-0.00388948 0.000622196 0)
(-0.00439848 0.000645015 0)
(-0.00492383 0.000664067 0)
(-0.00546263 0.000679392 0)
(-0.00601197 0.000691045 0)
(-0.00656901 0.000699097 0)
(-0.00713093 0.000703629 0)
(-0.007695 0.000704731 0)
(-0.00825854 0.000702503 0)
(-0.00881896 0.000697051 0)
(-0.00937374 0.000688488 0)
(-0.00992044 0.000676932 0)
(-0.0104567 0.000662503 0)
(-0.0109804 0.000645329 0)
(-0.0114893 0.000625538 0)
(-0.0119813 0.000603263 0)
(-0.0124546 0.000578636 0)
(-0.0129073 0.000551795 0)
(-0.0133377 0.000522877 0)
(-0.0137441 0.00049202 0)
(-0.0141252 0.000459365 0)
(-0.0144794 0.000425052 0)
(-0.0148055 0.000389223 0)
(-0.0151025 0.00035202 0)
(-0.0153691 0.000313585 0)
(-0.0156045 0.00027406 0)
(-0.0158078 0.00023359 0)
(-0.0159784 0.000192316 0)
(-0.0161157 0.000150384 0)
(-0.0162192 0.000107935 0)
(-0.0162885 6.51147e-05 0)
(-0.0163234 2.20664e-05 0)
(-0.0163237 -2.10656e-05 0)
(-0.0162896 -6.41369e-05 0)
(-0.016221 -0.000107003 0)
(-0.0161182 -0.000149519 0)
(-0.0159815 -0.000191539 0)
(-0.0158114 -0.000232919 0)
(-0.0156085 -0.000273514 0)
(-0.0153735 -0.000313177 0)
(-0.0151071 -0.000351763 0)
(-0.0148103 -0.000389126 0)
(-0.0144841 -0.000425122 0)
(-0.0141298 -0.000459605 0)
(-0.0137485 -0.000492431 0)
(-0.0133416 -0.000523454 0)
(-0.0129107 -0.000552533 0)
(-0.0124574 -0.000579524 0)
(-0.0119834 -0.000604288 0)
(-0.0114905 -0.000626684 0)
(-0.0109808 -0.000646577 0)
(-0.0104561 -0.000663832 0)
(-0.00991879 -0.000678318 0)
(-0.00937102 -0.000689906 0)
(-0.00881517 -0.000698474 0)
(-0.00825369 -0.000703903 0)
(-0.00768911 -0.00070608 0)
(-0.00712405 -0.000704899 0)
(-0.00656121 -0.000700262 0)
(-0.00600335 -0.000692079 0)
(-0.00545328 -0.000680271 0)
(-0.00491389 -0.00066477 0)
(-0.00438808 -0.000645524 0)
(-0.00387878 -0.000622498 0)
(-0.00338893 -0.000595675 0)
(-0.00292145 -0.000565065 0)
(-0.00247923 -0.000530708 0)
(-0.00206509 -0.000492681 0)
(-0.00168174 -0.000451109 0)
(-0.00133175 -0.000406178 0)
(-0.00101748 -0.000358157 0)
(-0.000741014 -0.000307421 0)
(-0.000504047 -0.000254488 0)
(-0.000307789 -0.000200079 0)
(-0.000152781 -0.000145191 0)
(-3.86924e-05 -9.12129e-05 0)
(3.5966e-05 -4.00864e-05 0)
(7.41913e-05 5.4681e-06 0)
(8.09085e-05 4.1656e-05 0)
(6.35751e-05 6.3271e-05 0)
(3.37745e-05 6.34297e-05 0)
(5.26565e-06 3.38255e-05 0)
(4.75587e-06 -5.13943e-05 0)
(2.6631e-05 -8.98694e-05 0)
(4.19342e-05 -7.97576e-05 0)
(3.61353e-05 -3.48251e-05 0)
(-3.01415e-06 3.43281e-05 0)
(-8.37313e-05 0.000119549 0)
(-0.000211621 0.000214679 0)
(-0.00039021 0.000315122 0)
(-0.000621326 0.000417472 0)
(-0.000905444 0.000519204 0)
(-0.00124197 0.000618448 0)
(-0.00162946 0.000713816 0)
(-0.00206585 0.00080428 0)
(-0.00254853 0.000889082 0)
(-0.00307453 0.000967671 0)
(-0.00364059 0.00103965 0)
(-0.00424323 0.00110475 0)
(-0.00487879 0.00116278 0)
(-0.00554354 0.00121366 0)
(-0.00623366 0.00125735 0)
(-0.00694532 0.00129384 0)
(-0.00767467 0.00132321 0)
(-0.00841789 0.00134554 0)
(-0.00917119 0.00136094 0)
(-0.00993086 0.00136957 0)
(-0.0106932 0.00137158 0)
(-0.0114547 0.00136715 0)
(-0.0122119 0.00135649 0)
(-0.0129614 0.00133981 0)
(-0.0136999 0.00131732 0)
(-0.0144244 0.00128926 0)
(-0.0151317 0.00125586 0)
(-0.015819 0.00121739 0)
(-0.0164836 0.00117407 0)
(-0.0171229 0.00112618 0)
(-0.0177344 0.00107398 0)
(-0.0183157 0.00101774 0)
(-0.0188648 0.000957711 0)
(-0.0193795 0.000894178 0)
(-0.019858 0.000827412 0)
(-0.0202986 0.000757687 0)
(-0.0206997 0.000685281 0)
(-0.0210599 0.000610469 0)
(-0.0213779 0.000533531 0)
(-0.0216526 0.000454745 0)
(-0.0218831 0.000374392 0)
(-0.0220685 0.000292751 0)
(-0.0222083 0.000210103 0)
(-0.0223019 0.000126729 0)
(-0.022349 4.29105e-05 0)
(-0.0223495 -4.10704e-05 0)
(-0.0223033 -0.000124932 0)
(-0.0222105 -0.00020839 0)
(-0.0220716 -0.000291164 0)
(-0.0218869 -0.000372968 0)
(-0.0216571 -0.000453521 0)
(-0.0213829 -0.000532537 0)
(-0.0210654 -0.000609734 0)
(-0.0207055 -0.000684826 0)
(-0.0203045 -0.000757532 0)
(-0.0198639 -0.000827567 0)
(-0.0193852 -0.00089465 0)
(-0.0188701 -0.000958499 0)
(-0.0183206 -0.00101883 0)
(-0.0177386 -0.00107538 0)
(-0.0171263 -0.00112786 0)
(-0.0164861 -0.001176 0)
(-0.0158204 -0.00121954 0)
(-0.0151319 -0.00125821 0)
(-0.0144233 -0.00129175 0)
(-0.0136975 -0.00131992 0)
(-0.0129576 -0.00134246 0)
(-0.0122068 -0.00135915 0)
(-0.0114482 -0.00136977 0)
(-0.0106854 -0.0013741 0)
(-0.00992173 -0.00137194 0)
(-0.00916089 -0.00136311 0)
(-0.00840653 -0.00134746 0)
(-0.00766239 -0.00132485 0)
(-0.00693228 -0.00129515 0)
(-0.00622004 -0.00125829 0)
(-0.00552952 -0.00121422 0)
(-0.00486459 -0.00116294 0)
(-0.00422905 -0.00110449 0)
(-0.00362666 -0.00103898 0)
(-0.00306104 -0.000966606 0)
(-0.00253568 -0.000887644 0)
(-0.00205382 -0.000802502 0)
(-0.00161843 -0.000711748 0)
(-0.00123206 -0.000616149 0)
(-0.000896764 -0.000516745 0)
(-0.00061394 -0.000414934 0)
(-0.00038414 -0.000312598 0)
(-0.000206845 -0.000212267 0)
(-8.01774e-05 -0.000117353 0)
(-5.64465e-07 -3.24486e-05 0)
(3.7644e-05 3.62975e-05 0)
(4.27035e-05 8.07574e-05 0)
(2.68975e-05 9.03799e-05 0)
(4.77171e-06 5.14919e-05 0)
(3.68038e-06 -6.35281e-05 0)
(1.3565e-05 -0.000101793 0)
(6.61651e-06 -7.30535e-05 0)
(-3.12485e-05 4.03162e-06 0)
(-0.000111896 0.000115336 0)
(-0.000243639 0.000249853 0)
(-0.000432274 0.000399059 0)
(-0.000681518 0.000556413 0)
(-0.000993339 0.000716919 0)
(-0.00136826 0.000876769 0)
(-0.00180562 0.00103307 0)
(-0.00230381 0.0011836 0)
(-0.00286045 0.00132672 0)
(-0.00347254 0.00146114 0)
(-0.00413663 0.00158594 0)
(-0.00484887 0.00170042 0)
(-0.00560513 0.0018041 0)
(-0.00640108 0.00189665 0)
(-0.00723224 0.00197784 0)
(-0.00809402 0.0020476 0)
(-0.00898179 0.0021059 0)
(-0.00989089 0.0021528 0)
(-0.0108167 0.00218842 0)
(-0.0117545 0.00221293 0)
(-0.0126999 0.00222653 0)
(-0.0136483 0.00222949 0)
(-0.0145954 0.00222206 0)
(-0.0155369 0.00220457 0)
(-0.0164687 0.00217734 0)
(-0.0173868 0.00214072 0)
(-0.0182872 0.00209507 0)
(-0.0191663 0.00204079 0)
(-0.0200205 0.00197826 0)
(-0.0208464 0.00190789 0)
(-0.0216408 0.00183009 0)
(-0.0224006 0.00174529 0)
(-0.023123 0.00165391 0)
(-0.0238053 0.00155639 0)
(-0.0244448 0.00145317 0)
(-0.0250394 0.00134468 0)
(-0.0255869 0.00123139 0)
(-0.0260853 0.00111372 0)
(-0.0265329 0.000992147 0)
(-0.026928 0.000867109 0)
(-0.0272693 0.000739062 0)
(-0.0275557 0.000608463 0)
(-0.0277861 0.000475766 0)
(-0.0279597 0.000341431 0)
(-0.028076 0.000205914 0)
(-0.0281345 6.96735e-05 0)
(-0.0281351 -6.68301e-05 0)
(-0.0280776 -0.000203137 0)
(-0.0279624 -0.000338787 0)
(-0.0277897 -0.000473319 0)
(-0.0275602 -0.000606271 0)
(-0.0272746 -0.000737182 0)
(-0.0269338 -0.000865589 0)
(-0.0265392 -0.000991031 0)
(-0.026092 -0.00111305 0)
(-0.0255937 -0.00123118 0)
(-0.0250462 -0.00134496 0)
(-0.0244514 -0.00145394 0)
(-0.0238114 -0.00155765 0)
(-0.0231285 -0.00165566 0)
(-0.0224053 -0.0017475 0)
(-0.0216445 -0.00183274 0)
(-0.020849 -0.00191093 0)
(-0.0200218 -0.00198165 0)
(-0.0191662 -0.00204448 0)
(-0.0182856 -0.00209899 0)
(-0.0173836 -0.00214479 0)
(-0.0164639 -0.0021815 0)
(-0.0155305 -0.00220874 0)
(-0.0145874 -0.00222616 0)
(-0.0136387 -0.00223343 0)
(-0.0126888 -0.00223025 0)
(-0.011742 -0.00221633 0)
(-0.0108029 -0.00219144 0)
(-0.00987602 -0.00215536 0)
(-0.00896602 -0.00210795 0)
(-0.00807756 -0.00204908 0)
(-0.00721531 -0.00197872 0)
(-0.00638393 -0.00189689 0)
(-0.005588 -0.0018037 0)
(-0.00483201 -0.00169938 0)
(-0.0041203 -0.00158428 0)
(-0.00345697 -0.00145889 0)
(-0.00284585 -0.00132394 0)
(-0.00229038 -0.00118037 0)
(-0.00179352 -0.00102947 0)
(-0.00135762 -0.000872921 0)
(-0.000984235 -0.000712942 0)
(-0.000673986 -0.000552447 0)
(-0.000426295 -0.000395252 0)
(-0.000239139 -0.000246361 0)
(-0.000108747 -0.00011231 0)
(-2.92714e-05 -1.60823e-06 0)
(7.65141e-06 7.4769e-05 0)
(1.39371e-05 0.000102753 0)
(3.7057e-06 6.37841e-05 0)
(2.32145e-06 -6.78147e-05 0)
(-3.1385e-06 -9.3476e-05 0)
(-3.77967e-05 -3.54231e-05 0)
(-0.000114411 8.37232e-05 0)
(-0.00024368 0.000246716 0)
(-0.000433483 0.000439921 0)
(-0.000689386 0.000652573 0)
(-0.00101497 0.000876223 0)
(-0.00141211 0.00110427 0)
(-0.00188123 0.00133156 0)
(-0.00242151 0.00155409 0)
(-0.00303113 0.00176874 0)
(-0.00370743 0.00197313 0)
(-0.00444706 0.00216539 0)
(-0.00524612 0.00234413 0)
(-0.00610028 0.00250829 0)
(-0.00700486 0.00265711 0)
(-0.00795491 0.00279005 0)
(-0.00894533 0.00290676 0)
(-0.00997084 0.00300706 0)
(-0.0110261 0.00309087 0)
(-0.0121058 0.00315825 0)
(-0.0132044 0.00320934 0)
(-0.0143167 0.00324434 0)
(-0.0154374 0.00326354 0)
(-0.0165613 0.00326727 0)
(-0.0176831 0.00325593 0)
(-0.0187981 0.00322995 0)
(-0.0199013 0.00318978 0)
(-0.020988 0.00313593 0)
(-0.0220537 0.00306893 0)
(-0.023094 0.00298931 0)
(-0.0241048 0.00289765 0)
(-0.025082 0.00279453 0)
(-0.0260218 0.00268055 0)
(-0.0269207 0.00255633 0)
(-0.0277753 0.00242249 0)
(-0.0285823 0.00227965 0)
(-0.0293389 0.00212847 0)
(-0.0300422 0.00196958 0)
(-0.0306897 0.00180364 0)
(-0.0312792 0.0016313 0)
(-0.0318086 0.00145322 0)
(-0.0322759 0.00127007 0)
(-0.0326797 0.00108251 0)
(-0.0330184 0.000891209 0)
(-0.0332908 0.000696832 0)
(-0.0334962 0.000500051 0)
(-0.0336337 0.000301539 0)
(-0.0337029 0.000101968 0)
(-0.0337035 -9.79878e-05 0)
(-0.0336355 -0.000297654 0)
(-0.0334991 -0.000496354 0)
(-0.0332948 -0.000693411 0)
(-0.0330233 -0.00088815 0)
(-0.0326855 -0.00107989 0)
(-0.0322825 -0.00126796 0)
(-0.0318156 -0.00145169 0)
(-0.0312866 -0.00163038 0)
(-0.0306973 -0.00180338 0)
(-0.0300497 -0.00197001 0)
(-0.0293461 -0.00212959 0)
(-0.028589 -0.00228148 0)
(-0.0277813 -0.002425 0)
(-0.0269258 -0.0025595 0)
(-0.0260258 -0.00268433 0)
(-0.0250847 -0.00279887 0)
(-0.024106 -0.00290248 0)
(-0.0230937 -0.00299455 0)
(-0.0220516 -0.00307449 0)
(-0.0209842 -0.00314173 0)
(-0.0198956 -0.00319569 0)
(-0.0187906 -0.00323587 0)
(-0.0176738 -0.00326175 0)
(-0.0165501 -0.00327287 0)
(-0.0154245 -0.0032688 0)
(-0.0143023 -0.00324916 0)
(-0.0131885 -0.00321361 0)
(-0.0120886 -0.00316189 0)
(-0.0110079 -0.00309378 0)
(-0.00995188 -0.00300916 0)
(-0.00892584 -0.00290801 0)
(-0.00793516 -0.0027904 0)
(-0.00698512 -0.00265655 0)
(-0.00608085 -0.00250682 0)
(-0.00522728 -0.00234178 0)
(-0.00442906 -0.00216222 0)
(-0.00369053 -0.0019692 0)
(-0.00301555 -0.00176418 0)
(-0.00240743 -0.001549 0)
(-0.0018688 -0.0013261 0)
(-0.00140144 -0.00109862 0)
(-0.00100609 -0.000870574 0)
(-0.000682296 -0.000647127 0)
(-0.000428107 -0.000434892 0)
(-0.000239885 -0.000242313 0)
(-0.000112002 -8.01394e-05 0)
(-3.65194e-05 3.8031e-05 0)
(-2.67163e-06 9.50116e-05 0)
(2.35451e-06 6.82817e-05 0)
(8.518e-07 -6.29264e-05 0)
(-2.18693e-05 -6.14687e-05 0)
(-8.7727e-05 3.80105e-05 0)
(-0.000207616 0.000209917 0)
(-0.000390532 0.000434411 0)
(-0.000643521 0.000695557 0)
(-0.000971582 0.000980548 0)
(-0.00137789 0.00127914 0)
(-0.00186401 0.00158318 0)
(-0.0024301 0.00188617 0)
(-0.0030751 0.00218298 0)
(-0.00379692 0.00246953 0)
(-0.00459258 0.00274265 0)
(-0.00545839 0.00299983 0)
(-0.00639004 0.00323916 0)
(-0.00738276 0.00345915 0)
(-0.00843136 0.00365873 0)
(-0.00953039 0.00383711 0)
(-0.0106741 0.00399376 0)
(-0.0118568 0.00412837 0)
(-0.0130723 0.00424081 0)
(-0.0143147 0.0043311 0)
(-0.015578 0.00439938 0)
(-0.0168561 0.0044459 0)
(-0.0181432 0.00447103 0)
(-0.0194332 0.00447519 0)
(-0.0207205 0.00445889 0)
(-0.0219994 0.00442269 0)
(-0.0232645 0.0043672 0)
(-0.0245103 0.00429309 0)
(-0.0257319 0.00420106 0)
(-0.0269241 0.00409184 0)
(-0.0280823 0.0039662 0)
(-0.0292019 0.00382492 0)
(-0.0302786 0.00366882 0)
(-0.0313083 0.00349873 0)
(-0.0322872 0.00331549 0)
(-0.0332115 0.00311996 0)
(-0.034078 0.00291302 0)
(-0.0348834 0.00269555 0)
(-0.035625 0.00246843 0)
(-0.0363001 0.00223256 0)
(-0.0369062 0.00198883 0)
(-0.0374414 0.00173816 0)
(-0.0379037 0.00148146 0)
(-0.0382915 0.00121964 0)
(-0.0386035 0.000953603 0)
(-0.0388386 0.00068428 0)
(-0.038996 0.000412588 0)
(-0.0390752 0.000139448 0)
(-0.0390758 -0.000134217 0)
(-0.0389979 -0.000407482 0)
(-0.0388418 -0.000679423 0)
(-0.0386078 -0.000949113 0)
(-0.0382969 -0.00121563 0)
(-0.03791 -0.00147803 0)
(-0.0374485 -0.00173541 0)
(-0.0369139 -0.00198684 0)
(-0.0363082 -0.00223138 0)
(-0.0356333 -0.00246813 0)
(-0.0348916 -0.00269616 0)
(-0.0340858 -0.00291456 0)
(-0.0332188 -0.00312242 0)
(-0.0322937 -0.00331885 0)
(-0.0313138 -0.00350296 0)
(-0.0302829 -0.00367386 0)
(-0.0292048 -0.0038307 0)
(-0.0280836 -0.00397263 0)
(-0.0269236 -0.00409882 0)
(-0.0257295 -0.00420847 0)
(-0.024506 -0.0043008 0)
(-0.0232581 -0.00437507 0)
(-0.021991 -0.00443057 0)
(-0.02071 -0.00446663 0)
(-0.0194207 -0.00448264 0)
(-0.0181288 -0.00447804 0)
(-0.01684 -0.00445232 0)
(-0.0155603 -0.00440506 0)
(-0.0142956 -0.00433593 0)
(-0.0130521 -0.00424468 0)
(-0.0118356 -0.00413118 0)
(-0.0106524 -0.00399543 0)
(-0.00950836 -0.0038376 0)
(-0.00840933 -0.00365801 0)
(-0.00736104 -0.00345723 0)
(-0.00636895 -0.00323606 0)
(-0.00543822 -0.00299564 0)
(-0.00457361 -0.00273746 0)
(-0.00377939 -0.00246348 0)
(-0.00305923 -0.00217623 0)
(-0.00241605 -0.00187892 0)
(-0.0018519 -0.00157565 0)
(-0.00136778 -0.00127159 0)
(-0.000963473 -0.000973241 0)
(-0.000637341 -0.00068877 0)
(-0.000386144 -0.000428419 0)
(-0.000204812 -0.000204978 0)
(-8.62303e-05 -3.43473e-05 0)
(-2.13182e-05 6.3695e-05 0)
(8.91304e-07 6.365e-05 0)
(-6.32516e-07 -4.81832e-05 0)
(-4.15937e-05 -3.724e-06 0)
(-0.000140718 0.000150383 0)
(-0.000306767 0.000386453 0)
(-0.000546709 0.000682605 0)
(-0.000866465 0.00102097 0)
(-0.00127021 0.00138694 0)
(-0.00176049 0.00176866 0)
(-0.00233838 0.00215649 0)
(-0.00300362 0.00254266 0)
(-0.00375481 0.00292092 0)
(-0.00458949 0.00328624 0)
(-0.00550436 0.00363461 0)
(-0.00649534 0.00396286 0)
(-0.00755773 0.00426851 0)
(-0.00868633 0.00454962 0)
(-0.00987551 0.00480476 0)
(-0.0111193 0.00503284 0)
(-0.0124115 0.00523315 0)
(-0.0137458 0.00540523 0)
(-0.0151155 0.00554884 0)
(-0.0165141 0.00566396 0)
(-0.017935 0.00575075 0)
(-0.0193715 0.00580949 0)
(-0.0208172 0.00584061 0)
(-0.0222655 0.00584462 0)
(-0.0237101 0.00582217 0)
(-0.0251448 0.00577394 0)
(-0.0265634 0.00570071 0)
(-0.0279601 0.00560334 0)
(-0.0293293 0.0054827 0)
(-0.0306653 0.00533975 0)
(-0.0319629 0.00517546 0)
(-0.0332171 0.00499085 0)
(-0.034423 0.00478696 0)
(-0.0355762 0.00456487 0)
(-0.0366723 0.00432567 0)
(-0.0377073 0.00407047 0)
(-0.0386774 0.00380041 0)
(-0.0395792 0.00351662 0)
(-0.0404093 0.00322027 0)
(-0.041165 0.00291252 0)
(-0.0418435 0.00259453 0)
(-0.0424425 0.00226749 0)
(-0.04296 0.00193259 0)
(-0.043394 0.001591 0)
(-0.0437432 0.00124394 0)
(-0.0440063 0.000892578 0)
(-0.0441825 0.000538133 0)
(-0.0442711 0.000181802 0)
(-0.0442718 -0.000175212 0)
(-0.0441846 -0.000531702 0)
(-0.0440098 -0.000886463 0)
(-0.0437479 -0.00123829 0)
(-0.0433999 -0.00158596 0)
(-0.0429668 -0.00192828 0)
(-0.0424503 -0.00226405 0)
(-0.0418519 -0.00259204 0)
(-0.0411738 -0.00291107 0)
(-0.0404183 -0.00321993 0)
(-0.039588 -0.00351744 0)
(-0.0386859 -0.00380239 0)
(-0.0377152 -0.00407362 0)
(-0.0366794 -0.00432997 0)
(-0.0355822 -0.00457027 0)
(-0.0344277 -0.00479339 0)
(-0.0332202 -0.00499821 0)
(-0.0319643 -0.00518365 0)
(-0.0306647 -0.00534863 0)
(-0.0293267 -0.00549213 0)
(-0.0279555 -0.00561314 0)
(-0.0265565 -0.00571071 0)
(-0.0251357 -0.00578395 0)
(-0.0236988 -0.005832 0)
(-0.0222521 -0.0058541 0)
(-0.0208017 -0.00584952 0)
(-0.0193541 -0.00581766 0)
(-0.0179158 -0.005758 0)
(-0.0164934 -0.00567013 0)
(-0.0150935 -0.00555378 0)
(-0.0137228 -0.00540882 0)
(-0.0123879 -0.00523531 0)
(-0.0110953 -0.0050335 0)
(-0.00985147 -0.00480388 0)
(-0.0086626 -0.00454722 0)
(-0.00753465 -0.00426462 0)
(-0.00647323 -0.00395757 0)
(-0.00548353 -0.00362805 0)
(-0.00457021 -0.00327857 0)
(-0.00373731 -0.00291235 0)
(-0.00298809 -0.00253345 0)
(-0.00232496 -0.0021469 0)
(-0.00174925 -0.00175901 0)
(-0.00126117 -0.00137757 0)
(-0.000859546 -0.00101222 0)
(-0.000541777 -0.000674826 0)
(-0.000303604 -0.00037998 0)
(-0.000139023 -0.000145516 0)
(-4.09673e-05 6.74441e-06 0)
(-5.87383e-07 4.92039e-05 0)
(-2.08319e-06 -2.33173e-05 0)
(-6.16616e-05 8.08248e-05 0)
(-0.000195118 0.000303533 0)
(-0.000408996 0.000615754 0)
(-0.000708068 0.000994074 0)
(-0.00109694 0.00141906 0)
(-0.00157878 0.00187457 0)
(-0.00215533 0.00234731 0)
(-0.002827 0.00282632 0)
(-0.00359301 0.00330261 0)
(-0.00445149 0.00376886 0)
(-0.00539956 0.0042191 0)
(-0.00643351 0.00464851 0)
(-0.00754888 0.00505322 0)
(-0.00874055 0.00543017 0)
(-0.0100029 0.00577696 0)
(-0.0113299 0.00609174 0)
(-0.012715 0.00637315 0)
(-0.0141517 0.00662022 0)
(-0.015633 0.00683234 0)
(-0.0171518 0.00700917 0)
(-0.0187011 0.00715062 0)
(-0.0202737 0.00725685 0)
(-0.0218624 0.00732816 0)
(-0.0234601 0.00736504 0)
(-0.0250599 0.00736813 0)
(-0.0266548 0.00733816 0)
(-0.0282381 0.00727599 0)
(-0.0298031 0.00718257 0)
(-0.0313434 0.00705894 0)
(-0.0328529 0.00690618 0)
(-0.0343255 0.00672547 0)
(-0.0357555 0.00651801 0)
(-0.0371374 0.00628508 0)
(-0.0384659 0.00602797 0)
(-0.0397361 0.00574802 0)
(-0.0409433 0.00544659 0)
(-0.0420831 0.00512508 0)
(-0.0431513 0.00478491 0)
(-0.0441441 0.00442749 0)
(-0.0450581 0.00405429 0)
(-0.04589 0.00366675 0)
(-0.0466369 0.00326636 0)
(-0.0472962 0.00285459 0)
(-0.0478657 0.00243292 0)
(-0.0483435 0.00200287 0)
(-0.0487278 0.00156591 0)
(-0.0490174 0.00112357 0)
(-0.0492112 0.000677348 0)
(-0.0493087 0.000228754 0)
(-0.0493095 -0.000220696 0)
(-0.0492135 -0.000669485 0)
(-0.0490211 -0.0011161 0)
(-0.0487329 -0.00155901 0)
(-0.0483498 -0.00199671 0)
(-0.0478732 -0.00242767 0)
(-0.0473046 -0.00285038 0)
(-0.0466459 -0.00326333 0)
(-0.0458995 -0.003665 0)
(-0.0450678 -0.00405389 0)
(-0.0441538 -0.00442851 0)
(-0.0431606 -0.00478736 0)
(-0.0420918 -0.00512897 0)
(-0.0409511 -0.00545189 0)
(-0.0397428 -0.00575466 0)
(-0.0384712 -0.00603588 0)
(-0.037141 -0.00629414 0)
(-0.0357573 -0.00652808 0)
(-0.0343253 -0.00673639 0)
(-0.0328505 -0.00691777 0)
(-0.0313387 -0.00707099 0)
(-0.029796 -0.00719487 0)
(-0.0282286 -0.00728831 0)
(-0.026643 -0.00735027 0)
(-0.0250458 -0.00737979 0)
(-0.0234437 -0.00737602 0)
(-0.0218439 -0.00733823 0)
(-0.0202533 -0.00726579 0)
(-0.0186791 -0.00715824 0)
(-0.0171284 -0.00701529 0)
(-0.0156085 -0.00683682 0)
(-0.0141264 -0.00662294 0)
(-0.0126893 -0.00637402 0)
(-0.0113041 -0.00609073 0)
(-0.00997743 -0.00577407 0)
(-0.00871573 -0.00542546 0)
(-0.00752506 -0.00504678 0)
(-0.00641102 -0.0046405 0)
(-0.0053787 -0.00420971 0)
(-0.00443251 -0.00375835 0)
(-0.00357613 -0.00329128 0)
(-0.00281238 -0.0028145 0)
(-0.00214305 -0.00233539 0)
(-0.00156888 -0.00186295 0)
(-0.00108934 -0.00140815 0)
(-0.000702637 -0.000984327 0)
(-0.000405503 -0.000607581 0)
(-0.000193241 -0.000297325 0)
(-6.09668e-05 -7.69163e-05 0)
(-2.03314e-06 2.46712e-05 0)
(-3.47767e-06 1.16877e-05 0)
(-8.1672e-05 0.000192584 0)
(-0.000249838 0.000498367 0)
(-0.000512332 0.000899174 0)
(-0.000871677 0.0013705 0)
(-0.00133106 0.00189168 0)
(-0.0018925 0.00244532 0)
(-0.00255681 0.00301687 0)
(-0.00332362 0.00359417 0)
(-0.00419151 0.00416716 0)
(-0.00515804 0.00472748 0)
(-0.00621986 0.00526828 0)
(-0.00737278 0.00578394 0)
(-0.00861189 0.00626992 0)
(-0.00993167 0.00672255 0)
(-0.0113261 0.00713896 0)
(-0.0127885 0.0075169 0)
(-0.0143123 0.00785468 0)
(-0.0158901 0.00815109 0)
(-0.0175146 0.00840534 0)
(-0.0191783 0.00861697 0)
(-0.0208736 0.00878584 0)
(-0.0225929 0.00891207 0)
(-0.0243285 0.00899599 0)
(-0.0260727 0.00903817 0)
(-0.0278182 0.00903933 0)
(-0.0295574 0.00900034 0)
(-0.0312832 0.00892221 0)
(-0.0329883 0.00880608 0)
(-0.034666 0.00865317 0)
(-0.0363096 0.0084648 0)
(-0.0379126 0.00824237 0)
(-0.0394688 0.00798735 0)
(-0.0409724 0.00770127 0)
(-0.0424176 0.00738569 0)
(-0.0437992 0.00704225 0)
(-0.045112 0.0066726 0)
(-0.0463513 0.00627843 0)
(-0.0475126 0.00586146 0)
(-0.048592 0.00542344 0)
(-0.0495855 0.00496613 0)
(-0.0504897 0.00449132 0)
(-0.0513014 0.00400079 0)
(-0.052018 0.00349635 0)
(-0.0526369 0.00297983 0)
(-0.0531561 0.00245305 0)
(-0.0535737 0.00191784 0)
(-0.0538884 0.00137604 0)
(-0.054099 0.000829503 0)
(-0.054205 0.000280066 0)
(-0.0542058 -0.000270415 0)
(-0.0541015 -0.000820085 0)
(-0.0538924 -0.00136709 0)
(-0.0535793 -0.00190957 0)
(-0.053163 -0.00244567 0)
(-0.0526451 -0.00297354 0)
(-0.0520272 -0.00349131 0)
(-0.0513114 -0.00399715 0)
(-0.0505001 -0.00448921 0)
(-0.0495962 -0.00496565 0)
(-0.0486026 -0.00542465 0)
(-0.047523 -0.00586439 0)
(-0.046361 -0.00628308 0)
(-0.0451208 -0.00667893 0)
(-0.0438068 -0.0070502 0)
(-0.0424238 -0.00739516 0)
(-0.0409768 -0.00771212 0)
(-0.0394713 -0.00799942 0)
(-0.037913 -0.00825546 0)
(-0.0363077 -0.00847869 0)
(-0.0346617 -0.00866762 0)
(-0.0329814 -0.00882084 0)
(-0.0312737 -0.00893701 0)
(-0.0295454 -0.00901489 0)
(-0.0278037 -0.00905335 0)
(-0.0260559 -0.00905138 0)
(-0.0243094 -0.00900812 0)
(-0.0225718 -0.00892286 0)
(-0.0208507 -0.00879506 0)
(-0.0191538 -0.0086244 0)
(-0.0174889 -0.0084108 0)
(-0.0158635 -0.00815445 0)
(-0.0142852 -0.00785583 0)
(-0.0127613 -0.00751579 0)
(-0.0112991 -0.00713561 0)
(-0.00990534 -0.00671701 0)
(-0.00858657 -0.0062623 0)
(-0.00734882 -0.00577442 0)
(-0.00619759 -0.0052571 0)
(-0.00513774 -0.00471493 0)
(-0.00417341 -0.00415358 0)
(-0.0033079 -0.00357998 0)
(-0.00254358 -0.0030025 0)
(-0.00188181 -0.00243127 0)
(-0.00132283 -0.00187845 0)
(-0.000865785 -0.00135862 0)
(-0.000508535 -0.000889149 0)
(-0.000247795 -0.000490691 0)
(-8.09144e-05 -0.000187701 0)
(-3.42298e-06 -9.96767e-06 0)
(-4.80739e-06 5.66999e-05 0)
(-0.000101386 0.000331526 0)
(-0.00030418 0.000735141 0)
(-0.000615456 0.00123729 0)
(-0.00103551 0.00181273 0)
(-0.00156606 0.00243988 0)
(-0.00220791 0.00310031 0)
(-0.00296082 0.00377842 0)
(-0.00382359 0.00446102 0)
(-0.00479404 0.00513704 0)
(-0.00586909 0.00579722 0)
(-0.00704483 0.00643384 0)
(-0.00831654 0.00704055 0)
(-0.00967885 0.00761213 0)
(-0.0111258 0.00814435 0)
(-0.0126508 0.00863384 0)
(-0.0142469 0.00907795 0)
(-0.0159069 0.00947468 0)
(-0.0176232 0.00982256 0)
(-0.0193878 0.0101206 0)
(-0.0211929 0.0103682 0)
(-0.0230305 0.0105652 0)
(-0.0248922 0.0107117 0)
(-0.0267702 0.010808 0)
(-0.0286563 0.0108548 0)
(-0.0305424 0.0108528 0)
(-0.0324209 0.0108031 0)
(-0.0342838 0.0107069 0)
(-0.0361238 0.0105655 0)
(-0.0379335 0.0103802 0)
(-0.0397057 0.0101528 0)
(-0.0414337 0.00988471 0)
(-0.0431108 0.00957781 0)
(-0.0447308 0.00923386 0)
(-0.0462876 0.00885474 0)
(-0.0477755 0.00844236 0)
(-0.0491891 0.0079987 0)
(-0.0505234 0.00752577 0)
(-0.0517736 0.00702562 0)
(-0.0529354 0.00650032 0)
(-0.0540047 0.00595199 0)
(-0.0549777 0.00538273 0)
(-0.0558513 0.00479471 0)
(-0.0566223 0.00419006 0)
(-0.0572882 0.00357098 0)
(-0.0578468 0.00293963 0)
(-0.0582961 0.00229821 0)
(-0.0586346 0.00164891 0)
(-0.0588612 0.000993951 0)
(-0.0589752 0.000335529 0)
(-0.0589761 -0.000324138 0)
(-0.058864 -0.000982833 0)
(-0.0586391 -0.00163834 0)
(-0.0583022 -0.00228844 0)
(-0.0578544 -0.0029309 0)
(-0.0572972 -0.00356353 0)
(-0.0566324 -0.00418409 0)
(-0.0558623 -0.00479038 0)
(-0.0549893 -0.00538021 0)
(-0.0540166 -0.00595137 0)
(-0.0529474 -0.00650169 0)
(-0.0517853 -0.00702901 0)
(-0.0505345 -0.00753119 0)
(-0.0491993 -0.0080061 0)
(-0.0477844 -0.00845167 0)